 Entering Gaussian System, Link 0=g09
 Input=h20h30+.com
 Output=h20h30+.log
 Initial command:
 /home/student/g09/l1.exe /home/student/singh/Gau-13979.inp -scrdir=/home/student/singh/
 Entering Link 1 = /home/student/g09/l1.exe PID=     13982.
  
 Copyright (c) 1988,1990,1992,1993,1995,1998,2003,2009,2011,
            Gaussian, Inc.  All Rights Reserved.
  
 This is part of the Gaussian(R) 09 program.  It is based on
 the Gaussian(R) 03 system (copyright 2003, Gaussian, Inc.),
 the Gaussian(R) 98 system (copyright 1998, Gaussian, Inc.),
 the Gaussian(R) 94 system (copyright 1995, Gaussian, Inc.),
 the Gaussian 92(TM) system (copyright 1992, Gaussian, Inc.),
 the Gaussian 90(TM) system (copyright 1990, Gaussian, Inc.),
 the Gaussian 88(TM) system (copyright 1988, Gaussian, Inc.),
 the Gaussian 86(TM) system (copyright 1986, Carnegie Mellon
 University), and the Gaussian 82(TM) system (copyright 1983,
 Carnegie Mellon University). Gaussian is a federally registered
 trademark of Gaussian, Inc.
  
 This software contains proprietary and confidential information,
 including trade secrets, belonging to Gaussian, Inc.
  
 This software is provided under written license and may be
 used, copied, transmitted, or stored only in accord with that
 written license.
  
 The following legend is applicable only to US Government
 contracts under FAR:
  
                    RESTRICTED RIGHTS LEGEND
  
 Use, reproduction and disclosure by the US Government is
 subject to restrictions as set forth in subparagraphs (a)
 and (c) of the Commercial Computer Software - Restricted
 Rights clause in FAR 52.227-19.
  
 Gaussian, Inc.
 340 Quinnipiac St., Bldg. 40, Wallingford CT 06492
  
  
 ---------------------------------------------------------------
 Warning -- This program may not be used in any manner that
 competes with the business of Gaussian, Inc. or will provide
 assistance to any competitor of Gaussian, Inc.  The licensee
 of this program is prohibited from giving any competitor of
 Gaussian, Inc. access to this program.  By using this program,
 the user acknowledges that Gaussian, Inc. is engaged in the
 business of creating and licensing software in the field of
 computational chemistry and represents and warrants to the
 licensee that it is not a competitor of Gaussian, Inc. and that
 it will not use this program in any manner prohibited above.
 ---------------------------------------------------------------
  

 Cite this work as:
 Gaussian 09, Revision C.01,
 M. J. Frisch, G. W. Trucks, H. B. Schlegel, G. E. Scuseria, 
 M. A. Robb, J. R. Cheeseman, G. Scalmani, V. Barone, B. Mennucci, 
 G. A. Petersson, H. Nakatsuji, M. Caricato, X. Li, H. P. Hratchian, 
 A. F. Izmaylov, J. Bloino, G. Zheng, J. L. Sonnenberg, M. Hada, 
 M. Ehara, K. Toyota, R. Fukuda, J. Hasegawa, M. Ishida, T. Nakajima, 
 Y. Honda, O. Kitao, H. Nakai, T. Vreven, J. A. Montgomery, Jr., 
 J. E. Peralta, F. Ogliaro, M. Bearpark, J. J. Heyd, E. Brothers, 
 K. N. Kudin, V. N. Staroverov, T. Keith, R. Kobayashi, J. Normand, 
 K. Raghavachari, A. Rendell, J. C. Burant, S. S. Iyengar, J. Tomasi, 
 M. Cossi, N. Rega, J. M. Millam, M. Klene, J. E. Knox, J. B. Cross, 
 V. Bakken, C. Adamo, J. Jaramillo, R. Gomperts, R. E. Stratmann, 
 O. Yazyev, A. J. Austin, R. Cammi, C. Pomelli, J. W. Ochterski, 
 R. L. Martin, K. Morokuma, V. G. Zakrzewski, G. A. Voth, 
 P. Salvador, J. J. Dannenberg, S. Dapprich, A. D. Daniels, 
 O. Farkas, J. B. Foresman, J. V. Ortiz, J. Cioslowski, 
 and D. J. Fox, Gaussian, Inc., Wallingford CT, 2010.
 
 ******************************************
 Gaussian 09:  EM64L-G09RevC.01 23-Sep-2011
                 1-Mar-2021 
 ******************************************
 %chk=h20h30+.chk
 ---------------------------------------
 # opt freq hf/6-31g** geom=connectivity
 ---------------------------------------
 1/18=20,19=15,38=1,57=2/1,3;
 2/9=110,12=2,17=6,18=5,40=1/2;
 3/5=1,6=6,7=101,11=9,16=1,25=1,30=1,71=1/1,2,3;
 4//1;
 5/5=2,38=5/2;
 6/7=2,8=2,9=2,10=2,28=1/1;
 7//1,2,3,16;
 1/18=20,19=15/3(2);
 2/9=110/2;
 99//99;
 2/9=110/2;
 3/5=1,6=6,7=101,11=9,16=1,25=1,30=1,71=1/1,2,3;
 4/5=5,16=3/1;
 5/5=2,38=5/2;
 7//1,2,3,16;
 1/18=20,19=15/3(-5);
 2/9=110/2;
 6/7=2,8=2,9=2,10=2,19=2,28=1/1;
 99/9=1/99;
 -------------------
 Title Card Required
 -------------------
 Charge =  1 Multiplicity = 1
 Symbolic Z-Matrix:
 O                     3.69965   0.30056   0.67358 
 H                     4.57245   0.47648   0.31459 
 H                     3.57413   0.81226   1.47609 
 O                     0.92053  -1.30204   0.35899 
 H                     1.79333  -1.12613   0. 
 H                     0.79501  -0.79034  -1.1615 
 H                     0.15766  -1.93694   0. 
 

 GradGradGradGradGradGradGradGradGradGradGradGradGradGradGradGradGradGrad
 Berny optimization.
 Initialization pass.
                           ----------------------------
                           !    Initial Parameters    !
                           ! (Angstroms and Degrees)  !
 --------------------------                            --------------------------
 ! Name  Definition              Value          Derivative Info.                !
 --------------------------------------------------------------------------------
 ! R1    R(1,2)                  0.96           estimate D2E/DX2                !
 ! R2    R(1,3)                  0.96           estimate D2E/DX2                !
 ! R3    R(1,5)                  2.4745         estimate D2E/DX2                !
 ! R4    R(4,5)                  0.96           estimate D2E/DX2                !
 ! R5    R(4,6)                  1.6092         estimate D2E/DX2                !
 ! R6    R(4,7)                  1.0554         estimate D2E/DX2                !
 ! A1    A(2,1,3)              109.5            estimate D2E/DX2                !
 ! A2    A(2,1,5)              134.7699         estimate D2E/DX2                !
 ! A3    A(3,1,5)              115.7301         estimate D2E/DX2                !
 ! A4    A(5,4,6)               70.0812         estimate D2E/DX2                !
 ! A5    A(5,4,7)              129.8056         estimate D2E/DX2                !
 ! A6    A(6,4,7)               79.2522         estimate D2E/DX2                !
 ! A7    A(1,5,4)              134.7699         estimate D2E/DX2                !
 ! D1    D(2,1,3,5)            180.0            estimate D2E/DX2                !
 ! D2    D(2,1,5,4)            180.0            estimate D2E/DX2                !
 ! D3    D(3,1,5,4)              0.0            estimate D2E/DX2                !
 ! D4    D(6,4,5,1)            124.0675         estimate D2E/DX2                !
 ! D5    D(7,4,5,1)            180.0            estimate D2E/DX2                !
 ! D6    D(5,4,6,7)            139.6285         estimate D2E/DX2                !
 --------------------------------------------------------------------------------
 Trust Radius=3.00D-01 FncErr=1.00D-07 GrdErr=1.00D-07
 Number of steps in this run=     29 maximum allowed number of steps=    100.
 GradGradGradGradGradGradGradGradGradGradGradGradGradGradGradGradGradGrad

                          Input orientation:                          
 ---------------------------------------------------------------------
 Center     Atomic      Atomic             Coordinates (Angstroms)
 Number     Number       Type             X           Y           Z
 ---------------------------------------------------------------------
      1          8           0        3.699652    0.300564    0.673583
      2          1           0        4.572451    0.476476    0.314590
      3          1           0        3.574127    0.812260    1.476086
      4          8           0        0.920534   -1.302039    0.358993
      5          1           0        1.793333   -1.126126    0.000000
      6          1           0        0.795010   -0.790342   -1.161496
      7          1           0        0.157658   -1.936937    0.000000
 ---------------------------------------------------------------------
                    Distance matrix (angstroms):
                    1          2          3          4          5
     1  O    0.000000
     2  H    0.960000   0.000000
     3  H    0.960000   1.567952   0.000000
     4  O    3.223476   4.062214   3.572074   0.000000
     5  H    2.474511   3.223476   3.017846   0.960000   0.000000
     6  H    3.604793   4.248849   4.153151   1.609184   1.567952
     7  H    4.243329   5.041223   4.627005   1.055439   1.825609
                    6          7
     6  H    0.000000
     7  H    1.752133   0.000000
 Stoichiometry    H5O2(1+)
 Framework group  C1[X(H5O2)]
 Deg. of freedom    15
 Full point group                 C1      NOp   1
 Largest Abelian subgroup         C1      NOp   1
 Largest concise Abelian subgroup C1      NOp   1
                         Standard orientation:                         
 ---------------------------------------------------------------------
 Center     Atomic      Atomic             Coordinates (Angstroms)
 Number     Number       Type             X           Y           Z
 ---------------------------------------------------------------------
      1          8           0        1.651570    0.018415   -0.016526
      2          1           0        2.425342    0.501762   -0.315276
      3          1           0        1.928015   -0.734864    0.510492
      4          8           0       -1.564930   -0.193233   -0.004957
      5          1           0       -0.791157    0.290114   -0.303707
      6          1           0       -1.666672    1.344589    0.457890
      7          1           0       -2.588649   -0.003060   -0.177537
 ---------------------------------------------------------------------
 Rotational constants (GHZ):    130.0254886      4.8866321      4.7721251
 Standard basis: 6-31G(d,p) (6D, 7F)
 There are    55 symmetry adapted basis functions of A   symmetry.
 Integral buffers will be    131072 words long.
 Raffenetti 1 integral format.
 Two-electron integral symmetry is turned on.
    55 basis functions,    91 primitive gaussians,    55 cartesian basis functions
    10 alpha electrons       10 beta electrons
       nuclear repulsion energy        38.5655636589 Hartrees.
 NAtoms=    7 NActive=    7 NUniq=    7 SFac= 1.00D+00 NAtFMM=   60 NAOKFM=F Big=F
 One-electron integrals computed using PRISM.
 NBasis=    55 RedAO= T  NBF=    55
 NBsUse=    55 1.00D-06 NBFU=    55
 Harris functional with IExCor=  205 diagonalized for initial guess.
 ExpMin= 1.61D-01 ExpMax= 5.48D+03 ExpMxC= 8.25D+02 IAcc=1 IRadAn=         1 AccDes= 0.00D+00
 HarFok:  IExCor=  205 AccDes= 0.00D+00 IRadAn=         1 IDoV= 1
 ScaDFX=  1.000000  1.000000  1.000000  1.000000
 FoFCou: FMM=F IPFlag=           0 FMFlag=      100000 FMFlg1=           0
         NFxFlg=           0 DoJE=T BraDBF=F KetDBF=T FulRan=T
         Omega=  0.000000  0.000000  1.000000  0.000000  0.000000 ICntrl=     500 IOpCl=  0
         NMat0=    1 NMatS0=    1 NMatT0=    0 NMatD0=    1 NMtDS0=    0 NMtDT0=    0
         I1Cent=           4 NGrid=           0.
 Petite list used in FoFCou.
 Initial guess orbital symmetries:
       Occupied  (A) (A) (A) (A) (A) (A) (A) (A) (A) (A)
       Virtual   (A) (A) (A) (A) (A) (A) (A) (A) (A) (A) (A) (A)
                 (A) (A) (A) (A) (A) (A) (A) (A) (A) (A) (A) (A)
                 (A) (A) (A) (A) (A) (A) (A) (A) (A) (A) (A) (A)
                 (A) (A) (A) (A) (A) (A) (A) (A) (A)
 The electronic state of the initial guess is 1-A.
 Requested convergence on RMS density matrix=1.00D-08 within 128 cycles.
 Requested convergence on MAX density matrix=1.00D-06.
 Requested convergence on             energy=1.00D-06.
 No special actions if energy rises.
 Keep R1 ints in memory in canonical form, NReq=2034557.
 SCF Done:  E(RHF) =  -152.175934248     A.U. after   13 cycles
             Convg  =    0.2245D-08             -V/T =  2.0059

 **********************************************************************

            Population analysis using the SCF density.

 **********************************************************************

 Orbital symmetries:
       Occupied  (A) (A) (A) (A) (A) (A) (A) (A) (A) (A)
       Virtual   (A) (A) (A) (A) (A) (A) (A) (A) (A) (A) (A) (A)
                 (A) (A) (A) (A) (A) (A) (A) (A) (A) (A) (A) (A)
                 (A) (A) (A) (A) (A) (A) (A) (A) (A) (A) (A) (A)
                 (A) (A) (A) (A) (A) (A) (A) (A) (A)
 The electronic state is 1-A.
 Alpha  occ. eigenvalues --  -20.96921 -20.71538  -1.68228  -1.48951  -1.07910
 Alpha  occ. eigenvalues --   -0.88761  -0.86504  -0.85199  -0.72342  -0.65203
 Alpha virt. eigenvalues --   -0.27908  -0.06412   0.03796   0.10071   0.17347
 Alpha virt. eigenvalues --    0.59633   0.65890   0.77470   0.80990   0.87263
 Alpha virt. eigenvalues --    0.91496   0.93010   1.00877   1.01565   1.02195
 Alpha virt. eigenvalues --    1.15277   1.19757   1.26320   1.36609   1.54118
 Alpha virt. eigenvalues --    1.58471   1.64137   1.72295   1.78299   1.82368
 Alpha virt. eigenvalues --    1.91100   2.08900   2.18184   2.30110   2.38894
 Alpha virt. eigenvalues --    2.41020   2.56114   2.66711   2.70881   2.74376
 Alpha virt. eigenvalues --    2.80262   2.83688   2.85746   3.22281   3.37512
 Alpha virt. eigenvalues --    3.52070   3.56777   3.75351   3.97321   4.05796
          Condensed to atoms (all electrons):
              1          2          3          4          5          6
     1  O    8.086827   0.313845   0.313170  -0.002512   0.020141  -0.000110
     2  H    0.313845   0.328847  -0.020167   0.000049  -0.000625   0.000004
     3  H    0.313170  -0.020167   0.332541   0.000202  -0.001120   0.000006
     4  O   -0.002512   0.000049   0.000202   7.837725   0.273171   0.150104
     5  H    0.020141  -0.000625  -0.001120   0.273171   0.247705   0.005720
     6  H   -0.000110   0.000004   0.000006   0.150104   0.005720   0.310319
     7  H    0.000032  -0.000001  -0.000002   0.259791  -0.009633   0.006501
              7
     1  O    0.000032
     2  H   -0.000001
     3  H   -0.000002
     4  O    0.259791
     5  H   -0.009633
     6  H    0.006501
     7  H    0.238907
 Mulliken atomic charges:
              1
     1  O   -0.731393
     2  H    0.378049
     3  H    0.375370
     4  O   -0.518529
     5  H    0.464642
     6  H    0.527457
     7  H    0.504405
 Sum of Mulliken atomic charges =   1.00000
 Mulliken charges with hydrogens summed into heavy atoms:
              1
     1  O    0.022026
     4  O    0.977974
 Sum of Mulliken charges with hydrogens summed into heavy atoms =   1.00000
 Electronic spatial extent (au):  <R**2>=            234.1248
 Charge=              1.0000 electrons
 Dipole moment (field-independent basis, Debye):
    X=             -5.8315    Y=              3.7351    Z=              0.3497  Tot=              6.9339
 Quadrupole moment (field-independent basis, Debye-Ang):
   XX=             14.8255   YY=             -6.2208   ZZ=            -12.2679
   XY=             -6.9348   XZ=              0.3639   YZ=              0.0729
 Traceless Quadrupole moment (field-independent basis, Debye-Ang):
   XX=             16.0466   YY=             -4.9998   ZZ=            -11.0468
   XY=             -6.9348   XZ=              0.3639   YZ=              0.0729
 Octapole moment (field-independent basis, Debye-Ang**2):
  XXX=            -23.2336  YYY=              7.4115  ZZZ=              0.2304  XYY=             -5.8565
  XXY=             11.1238  XXZ=             -0.4383  XZZ=             -0.3149  YZZ=              0.8143
  YYZ=              2.7615  XYZ=             -5.8159
 Hexadecapole moment (field-independent basis, Debye-Ang**3):
 XXXX=            -31.4871 YYYY=             -5.4772 ZZZZ=            -11.1103 XXXY=            -12.6073
 XXXZ=              1.4069 YYYX=            -14.7729 YYYZ=              2.5529 ZZZX=              0.8053
 ZZZY=             -0.2857 XXYY=            -18.7903 XXZZ=            -36.0975 YYZZ=             -3.0669
 XXYZ=             -1.4661 YYXZ=             -3.0712 ZZXY=             -2.5063
 N-N= 3.856556365889D+01 E-N=-4.329403107345D+02  KE= 1.512884482555D+02
 Calling FoFJK, ICntrl=      2127 FMM=F ISym2X=0 I1Cent= 0 IOpClX= 0 NMat=1 NMatS=1 NMatT=0.
 ***** Axes restored to original set *****
 -------------------------------------------------------------------
 Center     Atomic                   Forces (Hartrees/Bohr)
 Number     Number              X              Y              Z
 -------------------------------------------------------------------
      1        8          -0.001646684    0.002391373    0.000021013
      2        1          -0.015332717   -0.000099580    0.011839810
      3        1           0.009166557   -0.007565014   -0.015702547
      4        8          -0.085886021    0.021341253   -0.131603785
      5        1           0.030079011   -0.022873024    0.015389063
      6        1          -0.002491443   -0.014965030    0.088157982
      7        1           0.066111297    0.021770022    0.031898464
 -------------------------------------------------------------------
 Cartesian Forces:  Max     0.131603785 RMS     0.044428561

 GradGradGradGradGradGradGradGradGradGradGradGradGradGradGradGradGradGrad
 Berny optimization.
 Internal  Forces:  Max     0.087863148 RMS     0.029478255
 Search for a local minimum.
 Step number   1 out of a maximum of   29
 All quantities printed in internal units (Hartrees-Bohrs-Radians)
 Mixed Optimization -- RFO/linear search
 Second derivative matrix not updated -- first step.
 The second derivative matrix:
                          R1        R2        R3        R4        R5
           R1           0.55473
           R2           0.00000   0.55473
           R3           0.00000   0.00000   0.02145
           R4           0.00000   0.00000   0.00000   0.55473
           R5           0.00000   0.00000   0.00000   0.00000   0.08919
           R6           0.00000   0.00000   0.00000   0.00000   0.00000
           A1           0.00000   0.00000   0.00000   0.00000   0.00000
           A2           0.00000   0.00000   0.00000   0.00000   0.00000
           A3           0.00000   0.00000   0.00000   0.00000   0.00000
           A4           0.00000   0.00000   0.00000   0.00000   0.00000
           A5           0.00000   0.00000   0.00000   0.00000   0.00000
           A6           0.00000   0.00000   0.00000   0.00000   0.00000
           A7           0.00000   0.00000   0.00000   0.00000   0.00000
           D1           0.00000   0.00000   0.00000   0.00000   0.00000
           D2           0.00000   0.00000   0.00000   0.00000   0.00000
           D3           0.00000   0.00000   0.00000   0.00000   0.00000
           D4           0.00000   0.00000   0.00000   0.00000   0.00000
           D5           0.00000   0.00000   0.00000   0.00000   0.00000
           D6           0.00000   0.00000   0.00000   0.00000   0.00000
                          R6        A1        A2        A3        A4
           R6           0.39133
           A1           0.00000   0.16000
           A2           0.00000   0.00000   0.16000
           A3           0.00000   0.00000   0.00000   0.16000
           A4           0.00000   0.00000   0.00000   0.00000   0.16000
           A5           0.00000   0.00000   0.00000   0.00000   0.00000
           A6           0.00000   0.00000   0.00000   0.00000   0.00000
           A7           0.00000   0.00000   0.00000   0.00000   0.00000
           D1           0.00000   0.00000   0.00000   0.00000   0.00000
           D2           0.00000   0.00000   0.00000   0.00000   0.00000
           D3           0.00000   0.00000   0.00000   0.00000   0.00000
           D4           0.00000   0.00000   0.00000   0.00000   0.00000
           D5           0.00000   0.00000   0.00000   0.00000   0.00000
           D6           0.00000   0.00000   0.00000   0.00000   0.00000
                          A5        A6        A7        D1        D2
           A5           0.16000
           A6           0.00000   0.16000
           A7           0.00000   0.00000   0.25000
           D1           0.00000   0.00000   0.00000   0.01558
           D2           0.00000   0.00000   0.00000   0.00000   0.00230
           D3           0.00000   0.00000   0.00000   0.00000   0.00000
           D4           0.00000   0.00000   0.00000   0.00000   0.00000
           D5           0.00000   0.00000   0.00000   0.00000   0.00000
           D6           0.00000   0.00000   0.00000   0.00000   0.00000
                          D3        D4        D5        D6
           D3           0.00230
           D4           0.00000   0.01558
           D5           0.00000   0.00000   0.01558
           D6           0.00000   0.00000   0.00000   0.00230
 ITU=  0
     Eigenvalues ---    0.00230   0.00936   0.01558   0.02145   0.03322
     Eigenvalues ---    0.08919   0.12989   0.16000   0.16000   0.16000
     Eigenvalues ---    0.25000   0.39133   0.55473   0.55473   0.55473
 RFO step:  Lambda=-7.99274110D-02 EMin= 2.30000000D-03
 Linear search not attempted -- first point.
 Maximum step size (   0.300) exceeded in Quadratic search.
    -- Step size scaled by   0.512
 Iteration  1 RMS(Cart)=  0.07365678 RMS(Int)=  0.01625274
 Iteration  2 RMS(Cart)=  0.01345654 RMS(Int)=  0.00289909
 Iteration  3 RMS(Cart)=  0.00002221 RMS(Int)=  0.00289906
 Iteration  4 RMS(Cart)=  0.00000010 RMS(Int)=  0.00289906
 Variable       Old X    -DE/DX   Delta X   Delta X   Delta X     New X
                                 (Linear)    (Quad)   (Total)
    R1        1.81414  -0.01839   0.00000  -0.01483  -0.01483   1.79931
    R2        1.81414  -0.01836   0.00000  -0.01480  -0.01480   1.79933
    R3        4.67615  -0.01010   0.00000  -0.05102  -0.05102   4.62513
    R4        1.81414   0.01077   0.00000   0.00868   0.00868   1.82282
    R5        3.04092  -0.08786   0.00000  -0.26591  -0.26591   2.77501
    R6        1.99449  -0.07173   0.00000  -0.07790  -0.07790   1.91659
    A1        1.91114  -0.00796   0.00000  -0.01697  -0.01698   1.89416
    A2        2.35218   0.00304   0.00000   0.00648   0.00647   2.35865
    A3        2.01987   0.00492   0.00000   0.01050   0.01050   2.03037
    A4        1.22315   0.02832   0.00000   0.08245   0.08700   1.31015
    A5        2.26553   0.00019   0.00000  -0.02571  -0.03359   2.23195
    A6        1.38321   0.00720   0.00000   0.04234   0.04816   1.43137
    A7        2.35218   0.00507   0.00000   0.00787   0.00787   2.36005
    D1        3.14159   0.00071   0.00000   0.00409   0.00407  -3.13752
    D2       -3.14159  -0.00040   0.00000  -0.00227  -0.00228   3.13931
    D3        0.00000   0.00055   0.00000   0.00317   0.00318   0.00318
    D4        2.16539  -0.02466   0.00000  -0.10520  -0.10313   2.06226
    D5        3.14159   0.02242   0.00000   0.09320   0.09113  -3.05047
    D6        2.43698  -0.02577   0.00000  -0.12545  -0.11958   2.31740
         Item               Value     Threshold  Converged?
 Maximum Force            0.087863     0.000450     NO 
 RMS     Force            0.029478     0.000300     NO 
 Maximum Displacement     0.185845     0.001800     NO 
 RMS     Displacement     0.079153     0.001200     NO 
 Predicted change in Energy=-3.522872D-02
 GradGradGradGradGradGradGradGradGradGradGradGradGradGradGradGradGradGrad

                          Input orientation:                          
 ---------------------------------------------------------------------
 Center     Atomic      Atomic             Coordinates (Angstroms)
 Number     Number       Type             X           Y           Z
 ---------------------------------------------------------------------
      1          8           0        3.687589    0.284650    0.668143
      2          1           0        4.577279    0.419729    0.357012
      3          1           0        3.540746    0.850414    1.419787
      4          8           0        0.908570   -1.270757    0.307404
      5          1           0        1.809582   -1.131880   -0.007771
      6          1           0        0.756477   -0.765920   -1.063150
      7          1           0        0.232521   -1.952381   -0.019669
 ---------------------------------------------------------------------
                    Distance matrix (angstroms):
                    1          2          3          4          5
     1  O    0.000000
     2  H    0.952154   0.000000
     3  H    0.952166   1.545761   0.000000
     4  O    3.205053   4.039756   3.558808   0.000000
     5  H    2.447514   3.193854   2.994051   0.964595   0.000000
     6  H    3.562652   4.245133   4.065669   1.468473   1.535182
     7  H    4.173114   4.964445   4.568594   1.014214   1.777775
                    6          7
     6  H    0.000000
     7  H    1.664654   0.000000
 Stoichiometry    H5O2(1+)
 Framework group  C1[X(H5O2)]
 Deg. of freedom    15
 Full point group                 C1      NOp   1
 Largest Abelian subgroup         C1      NOp   1
 Largest concise Abelian subgroup C1      NOp   1
                         Standard orientation:                         
 ---------------------------------------------------------------------
 Center     Atomic      Atomic             Coordinates (Angstroms)
 Number     Number       Type             X           Y           Z
 ---------------------------------------------------------------------
      1          8           0        1.640028    0.018475   -0.018502
      2          1           0        2.414396    0.472642   -0.335808
      3          1           0        1.918655   -0.701619    0.538680
      4          8           0       -1.559213   -0.173632   -0.000560
      5          1           0       -0.773994    0.286557   -0.320093
      6          1           0       -1.679429    1.191350    0.527444
      7          1           0       -2.526142   -0.007673   -0.257729
 ---------------------------------------------------------------------
 Rotational constants (GHZ):    145.0784821      4.9411733      4.8575160
 Standard basis: 6-31G(d,p) (6D, 7F)
 There are    55 symmetry adapted basis functions of A   symmetry.
 Integral buffers will be    131072 words long.
 Raffenetti 1 integral format.
 Two-electron integral symmetry is turned on.
    55 basis functions,    91 primitive gaussians,    55 cartesian basis functions
    10 alpha electrons       10 beta electrons
       nuclear repulsion energy        39.1970215868 Hartrees.
 NAtoms=    7 NActive=    7 NUniq=    7 SFac= 1.00D+00 NAtFMM=   60 NAOKFM=F Big=F
 One-electron integrals computed using PRISM.
 NBasis=    55 RedAO= T  NBF=    55
 NBsUse=    55 1.00D-06 NBFU=    55
 Initial guess read from the read-write file.
 B after Tr=     0.000000    0.000000    0.000000
         Rot=    1.000000    0.000000    0.000000    0.000000 Ang=   0.00 deg.
 Initial guess orbital symmetries:
       Occupied  (A) (A) (A) (A) (A) (A) (A) (A) (A) (A)
       Virtual   (A) (A) (A) (A) (A) (A) (A) (A) (A) (A) (A) (A)
                 (A) (A) (A) (A) (A) (A) (A) (A) (A) (A) (A) (A)
                 (A) (A) (A) (A) (A) (A) (A) (A) (A) (A) (A) (A)
                 (A) (A) (A) (A) (A) (A) (A) (A) (A)
 Harris functional with IExCor=  205 diagonalized for initial guess.
 ExpMin= 1.61D-01 ExpMax= 5.48D+03 ExpMxC= 8.25D+02 IAcc=1 IRadAn=         1 AccDes= 0.00D+00
 HarFok:  IExCor=  205 AccDes= 0.00D+00 IRadAn=         1 IDoV= 1
 ScaDFX=  1.000000  1.000000  1.000000  1.000000
 FoFCou: FMM=F IPFlag=           0 FMFlag=      100000 FMFlg1=           0
         NFxFlg=           0 DoJE=T BraDBF=F KetDBF=T FulRan=T
         Omega=  0.000000  0.000000  1.000000  0.000000  0.000000 ICntrl=     500 IOpCl=  0
         NMat0=    1 NMatS0=    1 NMatT0=    0 NMatD0=    1 NMtDS0=    0 NMtDT0=    0
         I1Cent=           4 NGrid=           0.
 Petite list used in FoFCou.
 Requested convergence on RMS density matrix=1.00D-08 within 128 cycles.
 Requested convergence on MAX density matrix=1.00D-06.
 Requested convergence on             energy=1.00D-06.
 No special actions if energy rises.
 Keep R1 ints in memory in canonical form, NReq=2034557.
 SCF Done:  E(RHF) =  -152.218329100     A.U. after   11 cycles
             Convg  =    0.8207D-08             -V/T =  2.0054
 Calling FoFJK, ICntrl=      2127 FMM=F ISym2X=0 I1Cent= 0 IOpClX= 0 NMat=1 NMatS=1 NMatT=0.
 ***** Axes restored to original set *****
 -------------------------------------------------------------------
 Center     Atomic                   Forces (Hartrees/Bohr)
 Number     Number              X              Y              Z
 -------------------------------------------------------------------
      1        8          -0.006872238   -0.002108420   -0.002722442
      2        1          -0.007900442    0.000776700    0.006167478
      3        1           0.006559506   -0.004194581   -0.007326050
      4        8          -0.064038178    0.043112774   -0.146759835
      5        1           0.025613633   -0.026468095    0.022852408
      6        1          -0.001089174   -0.017698358    0.099739218
      7        1           0.047726892    0.006579980    0.028049224
 -------------------------------------------------------------------
 Cartesian Forces:  Max     0.146759835 RMS     0.045261976

 GradGradGradGradGradGradGradGradGradGradGradGradGradGradGradGradGradGrad
 Berny optimization.
 Using GEDIIS/GDIIS optimizer.
 Internal  Forces:  Max     0.099060166 RMS     0.029152444
 Search for a local minimum.
 Step number   2 out of a maximum of   29
 All quantities printed in internal units (Hartrees-Bohrs-Radians)
 Mixed Optimization -- RFO/linear search
 Update second derivatives using D2CorX and points    1    2
 DE= -4.24D-02 DEPred=-3.52D-02 R= 1.20D+00
 SS=  1.41D+00  RLast= 3.53D-01 DXNew= 5.0454D-01 1.0593D+00
 Trust test= 1.20D+00 RLast= 3.53D-01 DXMaxT set to 5.05D-01
 The second derivative matrix:
                          R1        R2        R3        R4        R5
           R1           0.51893
           R2          -0.03570   0.51913
           R3           0.00073   0.00072   0.02126
           R4           0.02094   0.02088  -0.00042   0.54249
           R5           0.01921   0.01912  -0.00420  -0.01121  -0.00611
           R6          -0.10891  -0.10861   0.00147   0.06370   0.04192
           A1          -0.01029  -0.01026   0.00016   0.00602   0.00445
           A2           0.00610   0.00609  -0.00017  -0.00357  -0.00438
           A3           0.00419   0.00418   0.00001  -0.00245  -0.00008
           A4          -0.01878  -0.01870   0.00285   0.01097   0.06517
           A5           0.00620   0.00617  -0.00105  -0.00362  -0.02386
           A6          -0.01600  -0.01594   0.00187   0.00935   0.04297
           A7           0.00292   0.00291   0.00012  -0.00171   0.00236
           D1           0.00014   0.00014   0.00000  -0.00008   0.00002
           D2          -0.00031  -0.00031   0.00002   0.00018   0.00037
           D3          -0.00028  -0.00028   0.00002   0.00016   0.00036
           D4           0.01487   0.01482  -0.00098  -0.00869  -0.02315
           D5          -0.01508  -0.01503   0.00097   0.00882   0.02285
           D6           0.00180   0.00180  -0.00013  -0.00105  -0.00305
                          R6        A1        A2        A3        A4
           R6           0.05681
           A1          -0.03149   0.15703
           A2           0.01836   0.00174   0.15894
           A3           0.01317   0.00123  -0.00069   0.15945
           A4          -0.04641  -0.00470   0.00392   0.00079   0.11444
           A5           0.01486   0.00152  -0.00132  -0.00020   0.01656
           A6          -0.04200  -0.00416   0.00318   0.00100  -0.03068
           A7           0.00963   0.00089  -0.00045  -0.00044  -0.00101
           D1           0.00044   0.00004  -0.00002  -0.00002   0.00001
           D2          -0.00091  -0.00009   0.00006   0.00003  -0.00029
           D3          -0.00080  -0.00008   0.00005   0.00003  -0.00028
           D4           0.04229   0.00408  -0.00273  -0.00135   0.01764
           D5          -0.04301  -0.00415   0.00276   0.00139  -0.01748
           D6           0.00508   0.00049  -0.00033  -0.00016   0.00229
                          A5        A6        A7        D1        D2
           A5           0.15396
           A6           0.01108   0.13893
           A7           0.00044  -0.00028   0.24958
           D1           0.00000   0.00002  -0.00002   0.01557
           D2           0.00010  -0.00022   0.00002   0.00000   0.00230
           D3           0.00010  -0.00021   0.00001   0.00000   0.00000
           D4          -0.00624   0.01279  -0.00051  -0.00004   0.00017
           D5           0.00618  -0.01271   0.00055   0.00004  -0.00017
           D6          -0.00082   0.00165  -0.00005   0.00000   0.00002
                          D3        D4        D5        D6
           D3           0.00230
           D4           0.00015   0.00669
           D5          -0.00015   0.00890   0.00666
           D6           0.00002  -0.00112   0.00112   0.00216
 ITU=  1  0
 Use linear search instead of GDIIS.
     Eigenvalues ---   -0.14787   0.00230   0.00927   0.01556   0.02112
     Eigenvalues ---    0.03663   0.06965   0.12343   0.15691   0.16000
     Eigenvalues ---    0.16819   0.25015   0.53059   0.55473   0.55473
 RFO step:  Lambda=-1.77578487D-01 EMin=-1.47865248D-01
 Skip linear search -- no minimum in search direction.
 Maximum step size (   0.505) exceeded in Quadratic search.
    -- Step size scaled by   0.516
 Iteration  1 RMS(Cart)=  0.11367126 RMS(Int)=  0.05931009
 Iteration  2 RMS(Cart)=  0.03982680 RMS(Int)=  0.01533433
 Iteration  3 RMS(Cart)=  0.01044733 RMS(Int)=  0.00955165
 Iteration  4 RMS(Cart)=  0.00002101 RMS(Int)=  0.00955164
 Iteration  5 RMS(Cart)=  0.00000030 RMS(Int)=  0.00955164
 Variable       Old X    -DE/DX   Delta X   Delta X   Delta X     New X
                                 (Linear)    (Quad)   (Total)
    R1        1.79931  -0.00929   0.00000   0.03683   0.03683   1.83614
    R2        1.79933  -0.00929   0.00000   0.03668   0.03668   1.83601
    R3        4.62513  -0.01057   0.00000  -0.04091  -0.04091   4.58422
    R4        1.82282   0.00545   0.00000  -0.02151  -0.02151   1.80131
    R5        2.77501  -0.09906   0.00000  -0.43644  -0.43644   2.33857
    R6        1.91659  -0.04528   0.00000   0.10696   0.10696   2.02354
    A1        1.89416  -0.00542   0.00000   0.01437   0.01437   1.90853
    A2        2.35865   0.00140   0.00000  -0.01442  -0.01442   2.34423
    A3        2.03037   0.00402   0.00000   0.00005   0.00004   2.03041
    A4        1.31015   0.03719   0.00000   0.18700   0.19376   1.50391
    A5        2.23195  -0.00291   0.00000  -0.01512  -0.04282   2.18912
    A6        1.43137   0.01382   0.00000   0.10656   0.11735   1.54871
    A7        2.36005   0.00462   0.00000   0.00552   0.00552   2.36556
    D1       -3.13752   0.00069   0.00000   0.00181   0.00182  -3.13570
    D2        3.13931  -0.00031   0.00000   0.00103   0.00104   3.14035
    D3        0.00318   0.00063   0.00000   0.00335   0.00334   0.00652
    D4        2.06226  -0.02956   0.00000  -0.17255  -0.16594   1.89632
    D5       -3.05047   0.02735   0.00000   0.16613   0.15952  -2.89095
    D6        2.31740  -0.02638   0.00000  -0.15145  -0.12469   2.19271
         Item               Value     Threshold  Converged?
 Maximum Force            0.099060     0.000450     NO 
 RMS     Force            0.029152     0.000300     NO 
 Maximum Displacement     0.283004     0.001800     NO 
 RMS     Displacement     0.125069     0.001200     NO 
 Predicted change in Energy=-7.808796D-02
 GradGradGradGradGradGradGradGradGradGradGradGradGradGradGradGradGradGrad

                          Input orientation:                          
 ---------------------------------------------------------------------
 Center     Atomic      Atomic             Coordinates (Angstroms)
 Number     Number       Type             X           Y           Z
 ---------------------------------------------------------------------
      1          8           0        3.686736    0.271546    0.669084
      2          1           0        4.624711    0.330176    0.422389
      3          1           0        3.490702    0.936555    1.349741
      4          8           0        0.914154   -1.208471    0.203840
      5          1           0        1.836446   -1.135138   -0.025535
      6          1           0        0.683641   -0.728771   -0.913391
      7          1           0        0.276375   -2.032042   -0.044372
 ---------------------------------------------------------------------
                    Distance matrix (angstroms):
                    1          2          3          4          5
     1  O    0.000000
     2  H    0.971644   0.000000
     3  H    0.971576   1.585451   0.000000
     4  O    3.177123   4.022863   3.542996   0.000000
     5  H    2.425867   3.181540   2.986613   0.953212   0.000000
     6  H    3.538848   4.293916   3.971734   1.237519   1.510756
     7  H    4.176853   4.970509   4.592169   1.070813   1.799615
                    6          7
     6  H    0.000000
     7  H    1.618509   0.000000
 Stoichiometry    H5O2(1+)
 Framework group  C1[X(H5O2)]
 Deg. of freedom    15
 Full point group                 C1      NOp   1
 Largest Abelian subgroup         C1      NOp   1
 Largest concise Abelian subgroup C1      NOp   1
                         Standard orientation:                         
 ---------------------------------------------------------------------
 Center     Atomic      Atomic             Coordinates (Angstroms)
 Number     Number       Type             X           Y           Z
 ---------------------------------------------------------------------
      1          8           0        1.630087    0.020596   -0.018344
      2          1           0        2.416340    0.512682   -0.307740
      3          1           0        1.907846   -0.765353    0.480749
      4          8           0       -1.543252   -0.134371   -0.013833
      5          1           0       -0.760171    0.334974   -0.287901
      6          1           0       -1.729391    0.803165    0.772191
      7          1           0       -2.529302    0.024729   -0.399881
 ---------------------------------------------------------------------
 Rotational constants (GHZ):    166.4893546      4.9841274      4.9512001
 Standard basis: 6-31G(d,p) (6D, 7F)
 There are    55 symmetry adapted basis functions of A   symmetry.
 Integral buffers will be    131072 words long.
 Raffenetti 1 integral format.
 Two-electron integral symmetry is turned on.
    55 basis functions,    91 primitive gaussians,    55 cartesian basis functions
    10 alpha electrons       10 beta electrons
       nuclear repulsion energy        39.5184141052 Hartrees.
 NAtoms=    7 NActive=    7 NUniq=    7 SFac= 1.00D+00 NAtFMM=   60 NAOKFM=F Big=F
 One-electron integrals computed using PRISM.
 NBasis=    55 RedAO= T  NBF=    55
 NBsUse=    55 1.00D-06 NBFU=    55
 Initial guess read from the read-write file.
 B after Tr=     0.000000    0.000000    0.000000
         Rot=    1.000000    0.000000    0.000000    0.000000 Ang=   0.00 deg.
 Initial guess orbital symmetries:
       Occupied  (A) (A) (A) (A) (A) (A) (A) (A) (A) (A)
       Virtual   (A) (A) (A) (A) (A) (A) (A) (A) (A) (A) (A) (A)
                 (A) (A) (A) (A) (A) (A) (A) (A) (A) (A) (A) (A)
                 (A) (A) (A) (A) (A) (A) (A) (A) (A) (A) (A) (A)
                 (A) (A) (A) (A) (A) (A) (A) (A) (A)
 Harris functional with IExCor=  205 diagonalized for initial guess.
 ExpMin= 1.61D-01 ExpMax= 5.48D+03 ExpMxC= 8.25D+02 IAcc=1 IRadAn=         1 AccDes= 0.00D+00
 HarFok:  IExCor=  205 AccDes= 0.00D+00 IRadAn=         1 IDoV= 1
 ScaDFX=  1.000000  1.000000  1.000000  1.000000
 FoFCou: FMM=F IPFlag=           0 FMFlag=      100000 FMFlg1=           0
         NFxFlg=           0 DoJE=T BraDBF=F KetDBF=T FulRan=T
         Omega=  0.000000  0.000000  1.000000  0.000000  0.000000 ICntrl=     500 IOpCl=  0
         NMat0=    1 NMatS0=    1 NMatT0=    0 NMatD0=    1 NMtDS0=    0 NMtDT0=    0
         I1Cent=           4 NGrid=           0.
 Petite list used in FoFCou.
 Requested convergence on RMS density matrix=1.00D-08 within 128 cycles.
 Requested convergence on MAX density matrix=1.00D-06.
 Requested convergence on             energy=1.00D-06.
 No special actions if energy rises.
 Keep R1 ints in memory in canonical form, NReq=2034557.
 SCF Done:  E(RHF) =  -152.279267885     A.U. after   12 cycles
             Convg  =    0.4447D-08             -V/T =  2.0060
 Calling FoFJK, ICntrl=      2127 FMM=F ISym2X=0 I1Cent= 0 IOpClX= 0 NMat=1 NMatS=1 NMatT=0.
 ***** Axes restored to original set *****
 -------------------------------------------------------------------
 Center     Atomic                   Forces (Hartrees/Bohr)
 Number     Number              X              Y              Z
 -------------------------------------------------------------------
      1        8           0.006256832    0.010764100    0.005145199
      2        1          -0.028157201    0.002247099    0.011744261
      3        1           0.013572569   -0.018635526   -0.020688441
      4        8          -0.100562134    0.013876649   -0.160097591
      5        1           0.034696258   -0.024809805    0.022561020
      6        1           0.008286287   -0.023167862    0.106882109
      7        1           0.065907390    0.039725345    0.034453444
 -------------------------------------------------------------------
 Cartesian Forces:  Max     0.160097591 RMS     0.053220039

 GradGradGradGradGradGradGradGradGradGradGradGradGradGradGradGradGradGrad
 Berny optimization.
 Using GEDIIS/GDIIS optimizer.
 Internal  Forces:  Max     0.107017125 RMS     0.035735343
 Search for a local minimum.
 Step number   3 out of a maximum of   29
 All quantities printed in internal units (Hartrees-Bohrs-Radians)
 Mixed Optimization -- RFO/linear search
 Update second derivatives using D2CorX and points    2    3
 DE= -6.09D-02 DEPred=-7.81D-02 R= 7.80D-01
 SS=  1.41D+00  RLast= 5.73D-01 DXNew= 8.4853D-01 1.7205D+00
 Trust test= 7.80D-01 RLast= 5.73D-01 DXMaxT set to 8.49D-01
 The second derivative matrix:
                          R1        R2        R3        R4        R5
           R1           1.30158
           R2           0.74544   1.29876
           R3           0.00469   0.00468   0.02144
           R4          -0.47723  -0.47633  -0.00299   0.85960
           R5           0.30428   0.30365  -0.00011  -0.19345   0.14249
           R6           1.12900   1.12690   0.00581  -0.72368   0.46032
           A1           0.09997   0.09979   0.00040  -0.06407   0.03924
           A2          -0.03293  -0.03287  -0.00014   0.02121  -0.01467
           A3          -0.06701  -0.06688  -0.00026   0.04284  -0.02456
           A4          -0.14384  -0.14353   0.00055   0.09106  -0.00855
           A5           0.46052   0.45962   0.00260  -0.29320   0.16436
           A6          -0.27690  -0.27634  -0.00101   0.17587  -0.07832
           A7           0.02951   0.02946   0.00038  -0.01868   0.01429
           D1           0.00293   0.00293   0.00003  -0.00186   0.00120
           D2          -0.00688  -0.00687  -0.00005   0.00437  -0.00262
           D3          -0.00334  -0.00333  -0.00003   0.00212  -0.00125
           D4           0.00087   0.00085   0.00034  -0.00019  -0.00468
           D5          -0.01535  -0.01530  -0.00045   0.00940  -0.00112
           D6          -0.22497  -0.22453  -0.00135   0.14331  -0.08695
                          R6        A1        A2        A3        A4
           R6           2.03836
           A1           0.14680   0.17321
           A2          -0.04624  -0.00423   0.16124
           A3          -0.10050  -0.00897   0.00299   0.16598
           A4          -0.22378  -0.01894   0.00768   0.01125   0.15215
           A5           0.71695   0.06280  -0.02199  -0.04079  -0.07034
           A6          -0.43559  -0.03777   0.01388   0.02387   0.02753
           A7           0.05007   0.00436  -0.00158  -0.00279  -0.00668
           D1           0.00474   0.00041  -0.00015  -0.00027  -0.00054
           D2          -0.01087  -0.00094   0.00033   0.00061   0.00113
           D3          -0.00528  -0.00045   0.00016   0.00029   0.00052
           D4           0.00303  -0.00072   0.00004   0.00069   0.00504
           D5          -0.02610  -0.00132   0.00068   0.00064  -0.00241
           D6          -0.35265  -0.03130   0.01086   0.02043   0.03935
                          A5        A6        A7        D1        D2
           A5           0.42925
           A6          -0.15371   0.24132
           A7           0.01703  -0.01047   0.25060
           D1           0.00170  -0.00100   0.00009   0.01558
           D2          -0.00402   0.00232  -0.00024  -0.00002   0.00236
           D3          -0.00193   0.00110  -0.00012  -0.00001   0.00003
           D4          -0.00240   0.00362   0.00020  -0.00001  -0.00003
           D5          -0.00611   0.00139  -0.00066  -0.00005   0.00016
           D6          -0.13312   0.07801  -0.00782  -0.00082   0.00194
                          D3        D4        D5        D6
           D3           0.00231
           D4          -0.00005   0.01935
           D5           0.00011  -0.00367   0.01939
           D6           0.00092   0.00225   0.00189   0.06790
 ITU=  1  1  0
 Use linear search instead of GDIIS.
     Eigenvalues ---    0.00006   0.00230   0.00940   0.01557   0.02153
     Eigenvalues ---    0.07755   0.09279   0.15594   0.15985   0.16214
     Eigenvalues ---    0.24920   0.43913   0.55469   0.55473   4.16293
 RFO step:  Lambda=-1.06541810D-01 EMin= 6.20647728D-05
 Skip linear search -- no minimum in search direction.
 Maximum step size (   0.849) exceeded in Quadratic search.
    -- Step size scaled by   0.929
 Iteration  1 RMS(Cart)=  0.12447992 RMS(Int)=  0.13473802
 Iteration  2 RMS(Cart)=  0.05188982 RMS(Int)=  0.08829907
 Iteration  3 RMS(Cart)=  0.04116291 RMS(Int)=  0.04437442
 Iteration  4 RMS(Cart)=  0.03541965 RMS(Int)=  0.01783300
 Iteration  5 RMS(Cart)=  0.00021878 RMS(Int)=  0.01783187
 Iteration  6 RMS(Cart)=  0.00000737 RMS(Int)=  0.01783187
 Iteration  7 RMS(Cart)=  0.00000040 RMS(Int)=  0.01783187
 Variable       Old X    -DE/DX   Delta X   Delta X   Delta X     New X
                                 (Linear)    (Quad)   (Total)
    R1        1.83614  -0.03003   0.00000   0.07187   0.07187   1.90801
    R2        1.83601  -0.02999   0.00000   0.07161   0.07161   1.90762
    R3        4.58422  -0.01070   0.00000  -0.08817  -0.08817   4.49605
    R4        1.80131   0.01866   0.00000  -0.04426  -0.04426   1.75705
    R5        2.33857  -0.10702   0.00000  -0.74658  -0.74658   1.59200
    R6        2.02354  -0.07779   0.00000   0.10815   0.10815   2.13169
    A1        1.90853  -0.00830   0.00000   0.00498   0.00497   1.91350
    A2        2.34423   0.00240   0.00000  -0.01156  -0.01157   2.33266
    A3        2.03041   0.00589   0.00000   0.00653   0.00652   2.03694
    A4        1.50391   0.04076   0.00000   0.31754   0.31538   1.81929
    A5        2.18912  -0.01516   0.00000  -0.07234  -0.11915   2.06997
    A6        1.54871   0.02097   0.00000   0.15197   0.15941   1.70812
    A7        2.36556   0.00390   0.00000   0.02261   0.02261   2.38817
    D1       -3.13570   0.00061   0.00000   0.00686   0.00690  -3.12881
    D2        3.14035  -0.00013   0.00000  -0.00478  -0.00474   3.13561
    D3        0.00652   0.00072   0.00000   0.00416   0.00413   0.01066
    D4        1.89632  -0.02940   0.00000  -0.22362  -0.20087   1.69546
    D5       -2.89095   0.02757   0.00000   0.20063   0.17788  -2.71307
    D6        2.19271  -0.02036   0.00000  -0.11151  -0.05903   2.13369
         Item               Value     Threshold  Converged?
 Maximum Force            0.107017     0.000450     NO 
 RMS     Force            0.035735     0.000300     NO 
 Maximum Displacement     0.478991     0.001800     NO 
 RMS     Displacement     0.179684     0.001200     NO 
 Predicted change in Energy=-9.205011D-02
 GradGradGradGradGradGradGradGradGradGradGradGradGradGradGradGradGradGrad

                          Input orientation:                          
 ---------------------------------------------------------------------
 Center     Atomic      Atomic             Coordinates (Angstroms)
 Number     Number       Type             X           Y           Z
 ---------------------------------------------------------------------
      1          8           0        3.660648    0.244774    0.660525
      2          1           0        4.659668    0.203148    0.520262
      3          1           0        3.433122    1.033802    1.247631
      4          8           0        0.918414   -1.112762    0.036579
      5          1           0        1.842411   -1.106356   -0.066868
      6          1           0        0.629342   -0.737201   -0.659920
      7          1           0        0.369160   -2.091549   -0.076453
 ---------------------------------------------------------------------
                    Distance matrix (angstroms):
                    1          2          3          4          5
     1  O    0.000000
     2  H    1.009677   0.000000
     3  H    1.009468   1.650293   0.000000
     4  O    3.122829   3.995317   3.521099   0.000000
     5  H    2.379210   3.161718   2.972968   0.929792   0.000000
     6  H    3.449155   4.303559   3.825753   0.842448   1.399830
     7  H    4.103100   4.902057   4.572622   1.128042   1.772333
                    6          7
     6  H    0.000000
     7  H    1.497459   0.000000
 Stoichiometry    H5O2(1+)
 Framework group  C1[X(H5O2)]
 Deg. of freedom    15
 Full point group                 C1      NOp   1
 Largest Abelian subgroup         C1      NOp   1
 Largest concise Abelian subgroup C1      NOp   1
                         Standard orientation:                         
 ---------------------------------------------------------------------
 Center     Atomic      Atomic             Coordinates (Angstroms)
 Number     Number       Type             X           Y           Z
 ---------------------------------------------------------------------
      1          8           0        1.601291    0.029353    0.001066
      2          1           0        2.412339    0.611328    0.152573
      3          1           0        1.895089   -0.904086   -0.246727
      4          8           0       -1.519620   -0.068311   -0.048289
      5          1           0       -0.743193    0.425610    0.084811
      6          1           0       -1.754582   -0.298031    0.727431
      7          1           0       -2.463022    0.476847   -0.340306
 ---------------------------------------------------------------------
 Rotational constants (GHZ):    198.6400168      5.1576614      5.1055038
 Standard basis: 6-31G(d,p) (6D, 7F)
 There are    55 symmetry adapted basis functions of A   symmetry.
 Integral buffers will be    131072 words long.
 Raffenetti 1 integral format.
 Two-electron integral symmetry is turned on.
    55 basis functions,    91 primitive gaussians,    55 cartesian basis functions
    10 alpha electrons       10 beta electrons
       nuclear repulsion energy        41.0440891612 Hartrees.
 NAtoms=    7 NActive=    7 NUniq=    7 SFac= 1.00D+00 NAtFMM=   60 NAOKFM=F Big=F
 One-electron integrals computed using PRISM.
 NBasis=    55 RedAO= T  NBF=    55
 NBsUse=    55 1.00D-06 NBFU=    55
 Initial guess read from the read-write file.
 B after Tr=     0.000000    0.000000    0.000000
         Rot=    1.000000    0.000000    0.000000    0.000000 Ang=   0.00 deg.
 Initial guess orbital symmetries:
       Occupied  (A) (A) (A) (A) (A) (A) (A) (A) (A) (A)
       Virtual   (A) (A) (A) (A) (A) (A) (A) (A) (A) (A) (A) (A)
                 (A) (A) (A) (A) (A) (A) (A) (A) (A) (A) (A) (A)
                 (A) (A) (A) (A) (A) (A) (A) (A) (A) (A) (A) (A)
                 (A) (A) (A) (A) (A) (A) (A) (A) (A)
 Harris functional with IExCor=  205 diagonalized for initial guess.
 ExpMin= 1.61D-01 ExpMax= 5.48D+03 ExpMxC= 8.25D+02 IAcc=1 IRadAn=         1 AccDes= 0.00D+00
 HarFok:  IExCor=  205 AccDes= 0.00D+00 IRadAn=         1 IDoV= 1
 ScaDFX=  1.000000  1.000000  1.000000  1.000000
 FoFCou: FMM=F IPFlag=           0 FMFlag=      100000 FMFlg1=           0
         NFxFlg=           0 DoJE=T BraDBF=F KetDBF=T FulRan=T
         Omega=  0.000000  0.000000  1.000000  0.000000  0.000000 ICntrl=     500 IOpCl=  0
         NMat0=    1 NMatS0=    1 NMatT0=    0 NMatD0=    1 NMtDS0=    0 NMtDT0=    0
         I1Cent=           4 NGrid=           0.
 Petite list used in FoFCou.
 Requested convergence on RMS density matrix=1.00D-08 within 128 cycles.
 Requested convergence on MAX density matrix=1.00D-06.
 Requested convergence on             energy=1.00D-06.
 No special actions if energy rises.
 Keep R1 ints in memory in canonical form, NReq=2034557.
 SCF Done:  E(RHF) =  -152.305382034     A.U. after   12 cycles
             Convg  =    0.6414D-08             -V/T =  2.0033
 Calling FoFJK, ICntrl=      2127 FMM=F ISym2X=0 I1Cent= 0 IOpClX= 0 NMat=1 NMatS=1 NMatT=0.
 ***** Axes restored to original set *****
 -------------------------------------------------------------------
 Center     Atomic                   Forces (Hartrees/Bohr)
 Number     Number              X              Y              Z
 -------------------------------------------------------------------
      1        8           0.028975882    0.032356444    0.018524686
      2        1          -0.061104168    0.008659136    0.013071596
      3        1           0.023625017   -0.046804995   -0.035353403
      4        8          -0.037883580   -0.168217181    0.116835958
      5        1           0.056085880   -0.008816184    0.014045393
      6        1          -0.071308080    0.107830797   -0.152068026
      7        1           0.061609049    0.074991983    0.024943797
 -------------------------------------------------------------------
 Cartesian Forces:  Max     0.168217181 RMS     0.071344272

 GradGradGradGradGradGradGradGradGradGradGradGradGradGradGradGradGradGrad
 Berny optimization.
 Using GEDIIS/GDIIS optimizer.
 Internal  Forces:  Max     0.198261886 RMS     0.056624237
 Search for a local minimum.
 Step number   4 out of a maximum of   29
 All quantities printed in internal units (Hartrees-Bohrs-Radians)
 Mixed Optimization -- RFO/linear search
 Update second derivatives using D2CorX and points    3    4
 DE= -2.61D-02 DEPred=-9.21D-02 R= 2.84D-01
 Trust test= 2.84D-01 RLast= 8.97D-01 DXMaxT set to 8.49D-01
 The second derivative matrix:
                          R1        R2        R3        R4        R5
           R1           0.84199
           R2           0.28670   0.84088
           R3          -0.00010  -0.00010   0.02139
           R4          -0.18925  -0.18888   0.00001   0.67934
           R5           0.04779   0.04772  -0.00264  -0.02372   0.41859
           R6           0.22124   0.22085  -0.00362  -0.15364   0.01156
           A1           0.01421   0.01419  -0.00049  -0.01024  -0.00427
           A2           0.00079   0.00079   0.00021   0.00004   0.00229
           A3          -0.01505  -0.01502   0.00028   0.01023   0.00195
           A4          -0.04731  -0.04719   0.00154   0.02981   0.00960
           A5           0.08939   0.08919  -0.00126  -0.05999  -0.01212
           A6          -0.11931  -0.11905   0.00063   0.07688  -0.00219
           A7           0.02928   0.02922   0.00038  -0.01853   0.01388
           D1           0.00124   0.00123   0.00001  -0.00080   0.00007
           D2          -0.00220  -0.00220   0.00000   0.00144  -0.00018
           D3          -0.00106  -0.00106  -0.00001   0.00069  -0.00029
           D4           0.01056   0.01052   0.00045  -0.00594   0.01573
           D5          -0.01599  -0.01594  -0.00046   0.00949  -0.01614
           D6          -0.06508  -0.06494   0.00031   0.04327   0.00892
                          R6        A1        A2        A3        A4
           R6           0.25342
           A1          -0.02199   0.15725
           A2           0.02011   0.00204   0.15877
           A3           0.00178   0.00070  -0.00081   0.16012
           A4          -0.03806  -0.00130   0.00076   0.00055   0.13492
           A5          -0.01186  -0.00614   0.00511   0.00098   0.00499
           A6          -0.12596  -0.00848   0.00237   0.00613  -0.00456
           A7           0.04957   0.00432  -0.00156  -0.00276  -0.00660
           D1           0.00136   0.00010  -0.00002  -0.00007  -0.00017
           D2          -0.00165  -0.00007  -0.00001   0.00008   0.00017
           D3          -0.00083  -0.00003  -0.00001   0.00003   0.00007
           D4           0.02424   0.00124  -0.00074  -0.00050   0.00173
           D5          -0.02939  -0.00159   0.00079   0.00079  -0.00103
           D6          -0.03593  -0.00139  -0.00090   0.00231   0.00521
                          A5        A6        A7        D1        D2
           A5           0.13179
           A6          -0.02732   0.18761
           A7           0.01681  -0.01038   0.25060
           D1           0.00032  -0.00042   0.00009   0.01558
           D2          -0.00025   0.00072  -0.00023  -0.00001   0.00231
           D3          -0.00012   0.00033  -0.00012   0.00000   0.00001
           D4           0.00653  -0.00012   0.00019   0.00002  -0.00014
           D5          -0.00769   0.00202  -0.00065  -0.00004   0.00017
           D6          -0.00352   0.02300  -0.00775  -0.00023   0.00031
                          D3        D4        D5        D6
           D3           0.00230
           D4          -0.00011   0.01968
           D5           0.00013  -0.00418   0.01990
           D6           0.00012  -0.00088   0.00188   0.01238
 ITU=  0  1  1  0
 Use linear search instead of GDIIS.
     Eigenvalues ---    0.00230   0.00941   0.01062   0.01567   0.02166
     Eigenvalues ---    0.08846   0.12276   0.15750   0.16036   0.19594
     Eigenvalues ---    0.25996   0.41440   0.55473   0.55517   1.41382
 RFO step:  Lambda=-6.44646834D-02 EMin= 2.29795923D-03
 Quartic linear search produced a step of -0.30879.
 Iteration  1 RMS(Cart)=  0.14800644 RMS(Int)=  0.04114625
 Iteration  2 RMS(Cart)=  0.03863058 RMS(Int)=  0.00278006
 Iteration  3 RMS(Cart)=  0.00066295 RMS(Int)=  0.00271877
 Iteration  4 RMS(Cart)=  0.00000202 RMS(Int)=  0.00271877
 Iteration  5 RMS(Cart)=  0.00000001 RMS(Int)=  0.00271877
 Variable       Old X    -DE/DX   Delta X   Delta X   Delta X     New X
                                 (Linear)    (Quad)   (Total)
    R1        1.90801  -0.06263  -0.02219   0.04284   0.02065   1.92866
    R2        1.90762  -0.06247  -0.02211   0.04276   0.02064   1.92826
    R3        4.49605  -0.01093   0.02723  -0.23863  -0.21141   4.28465
    R4        1.75705   0.04604   0.01367  -0.02637  -0.01271   1.74434
    R5        1.59200   0.19826   0.23053   0.06510   0.29563   1.88762
    R6        2.13169  -0.09757  -0.03339  -0.26566  -0.29906   1.83263
    A1        1.91350  -0.01102  -0.00153  -0.07694  -0.07851   1.83499
    A2        2.33266   0.00336   0.00357   0.03517   0.03868   2.37134
    A3        2.03694   0.00765  -0.00201   0.04149   0.03943   2.07637
    A4        1.81929   0.02004  -0.09738   0.30620   0.21227   2.03156
    A5        2.06997  -0.01785   0.03679  -0.23298  -0.19149   1.87848
    A6        1.70812   0.02304  -0.04922   0.12662   0.08454   1.79266
    A7        2.38817   0.00367  -0.00698   0.07048   0.06350   2.45168
    D1       -3.12881   0.00035  -0.00213   0.01831   0.01568  -3.11312
    D2        3.13561   0.00007   0.00146  -0.01223  -0.01112   3.12448
    D3        0.01066   0.00064  -0.00128   0.01262   0.01171   0.02236
    D4        1.69546  -0.01714   0.06202  -0.15568  -0.08846   1.60700
    D5       -2.71307   0.01621  -0.05493   0.09632   0.03620  -2.67688
    D6        2.13369  -0.00389   0.01823  -0.10381  -0.08649   2.04720
         Item               Value     Threshold  Converged?
 Maximum Force            0.198262     0.000450     NO 
 RMS     Force            0.056624     0.000300     NO 
 Maximum Displacement     0.529407     0.001800     NO 
 RMS     Displacement     0.168711     0.001200     NO 
 Predicted change in Energy=-6.412762D-02
 GradGradGradGradGradGradGradGradGradGradGradGradGradGradGradGradGradGrad

                          Input orientation:                          
 ---------------------------------------------------------------------
 Center     Atomic      Atomic             Coordinates (Angstroms)
 Number     Number       Type             X           Y           Z
 ---------------------------------------------------------------------
      1          8           0        3.605714    0.182881    0.647542
      2          1           0        4.621407    0.129027    0.563270
      3          1           0        3.428220    1.023504    1.198042
      4          8           0        0.926426   -1.106016    0.029850
      5          1           0        1.848071   -1.085820   -0.017220
      6          1           0        0.433618   -0.676566   -0.725458
      7          1           0        0.649310   -2.033154   -0.034270
 ---------------------------------------------------------------------
                    Distance matrix (angstroms):
                    1          2          3          4          5
     1  O    0.000000
     2  H    1.020605   0.000000
     3  H    1.020393   1.620716   0.000000
     4  O    3.036673   3.932271   3.486904   0.000000
     5  H    2.267338   3.082891   2.902237   0.923067   0.000000
     6  H    3.561737   4.455040   3.944329   0.998888   1.633942
     7  H    3.757127   4.561758   4.310927   0.969789   1.527992
                    6          7
     6  H    0.000000
     7  H    1.537724   0.000000
 Stoichiometry    H5O2(1+)
 Framework group  C1[X(H5O2)]
 Deg. of freedom    15
 Full point group                 C1      NOp   1
 Largest Abelian subgroup         C1      NOp   1
 Largest concise Abelian subgroup C1      NOp   1
                         Standard orientation:                         
 ---------------------------------------------------------------------
 Center     Atomic      Atomic             Coordinates (Angstroms)
 Number     Number       Type             X           Y           Z
 ---------------------------------------------------------------------
      1          8           0        1.546689    0.024756    0.014396
      2          1           0        2.384988    0.558802    0.246094
      3          1           0        1.889615   -0.851872   -0.379466
      4          8           0       -1.488085   -0.043972   -0.068114
      5          1           0       -0.690253    0.377093    0.127392
      6          1           0       -1.902544   -0.574824    0.669583
      7          1           0       -2.150641    0.644531   -0.233863
 ---------------------------------------------------------------------
 Rotational constants (GHZ):    182.7768479      5.4572221      5.3884122
 Standard basis: 6-31G(d,p) (6D, 7F)
 There are    55 symmetry adapted basis functions of A   symmetry.
 Integral buffers will be    131072 words long.
 Raffenetti 1 integral format.
 Two-electron integral symmetry is turned on.
    55 basis functions,    91 primitive gaussians,    55 cartesian basis functions
    10 alpha electrons       10 beta electrons
       nuclear repulsion energy        41.2988885264 Hartrees.
 NAtoms=    7 NActive=    7 NUniq=    7 SFac= 1.00D+00 NAtFMM=   60 NAOKFM=F Big=F
 One-electron integrals computed using PRISM.
 NBasis=    55 RedAO= T  NBF=    55
 NBsUse=    55 1.00D-06 NBFU=    55
 Initial guess read from the read-write file.
 B after Tr=     0.000000    0.000000    0.000000
         Rot=    1.000000    0.000000    0.000000    0.000000 Ang=   0.00 deg.
 Initial guess orbital symmetries:
       Occupied  (A) (A) (A) (A) (A) (A) (A) (A) (A) (A)
       Virtual   (A) (A) (A) (A) (A) (A) (A) (A) (A) (A) (A) (A)
                 (A) (A) (A) (A) (A) (A) (A) (A) (A) (A) (A) (A)
                 (A) (A) (A) (A) (A) (A) (A) (A) (A) (A) (A) (A)
                 (A) (A) (A) (A) (A) (A) (A) (A) (A)
 Harris functional with IExCor=  205 diagonalized for initial guess.
 ExpMin= 1.61D-01 ExpMax= 5.48D+03 ExpMxC= 8.25D+02 IAcc=1 IRadAn=         1 AccDes= 0.00D+00
 HarFok:  IExCor=  205 AccDes= 0.00D+00 IRadAn=         1 IDoV= 1
 ScaDFX=  1.000000  1.000000  1.000000  1.000000
 FoFCou: FMM=F IPFlag=           0 FMFlag=      100000 FMFlg1=           0
         NFxFlg=           0 DoJE=T BraDBF=F KetDBF=T FulRan=T
         Omega=  0.000000  0.000000  1.000000  0.000000  0.000000 ICntrl=     500 IOpCl=  0
         NMat0=    1 NMatS0=    1 NMatT0=    0 NMatD0=    1 NMtDS0=    0 NMtDT0=    0
         I1Cent=           4 NGrid=           0.
 Petite list used in FoFCou.
 Requested convergence on RMS density matrix=1.00D-08 within 128 cycles.
 Requested convergence on MAX density matrix=1.00D-06.
 Requested convergence on             energy=1.00D-06.
 No special actions if energy rises.
 Keep R1 ints in memory in canonical form, NReq=2034557.
 SCF Done:  E(RHF) =  -152.346948964     A.U. after   12 cycles
             Convg  =    0.2717D-08             -V/T =  2.0045
 Calling FoFJK, ICntrl=      2127 FMM=F ISym2X=0 I1Cent= 0 IOpClX= 0 NMat=1 NMatS=1 NMatT=0.
 ***** Axes restored to original set *****
 -------------------------------------------------------------------
 Center     Atomic                   Forces (Hartrees/Bohr)
 Number     Number              X              Y              Z
 -------------------------------------------------------------------
      1        8           0.044825571    0.045816730    0.026552005
      2        1          -0.068283822    0.004193929    0.006133815
      3        1           0.014821712   -0.056107143   -0.036314369
      4        8          -0.082598297   -0.020079564   -0.036231425
      5        1           0.062259441    0.021303068   -0.000815849
      6        1           0.027092565    0.000073566    0.027193429
      7        1           0.001882830    0.004799414    0.013482394
 -------------------------------------------------------------------
 Cartesian Forces:  Max     0.082598297 RMS     0.037012734

 GradGradGradGradGradGradGradGradGradGradGradGradGradGradGradGradGradGrad
 Berny optimization.
 Using GEDIIS/GDIIS optimizer.
 Internal  Forces:  Max     0.068682965 RMS     0.027473869
 Search for a local minimum.
 Step number   5 out of a maximum of   29
 All quantities printed in internal units (Hartrees-Bohrs-Radians)
 Mixed Optimization -- RFO/linear search
 Update second derivatives using D2CorX and points    4    5
 DE= -4.16D-02 DEPred=-6.41D-02 R= 6.48D-01
 SS=  1.41D+00  RLast= 5.85D-01 DXNew= 1.4270D+00 1.7539D+00
 Trust test= 6.48D-01 RLast= 5.85D-01 DXMaxT set to 1.43D+00
 The second derivative matrix:
                          R1        R2        R3        R4        R5
           R1           0.79415
           R2           0.23897   0.79326
           R3          -0.00302  -0.00301   0.02121
           R4          -0.15394  -0.15365   0.00217   0.65340
           R5           0.16276   0.16217   0.00408  -0.11643   0.68208
           R6           0.15828   0.15814  -0.00734  -0.10400  -0.05487
           A1           0.00911   0.00911  -0.00079  -0.00618  -0.01236
           A2           0.00107   0.00106   0.00022  -0.00031   0.01112
           A3          -0.01025  -0.01024   0.00056   0.00654   0.00127
           A4          -0.01448  -0.01447   0.00350   0.00428   0.01959
           A5           0.07149   0.07135  -0.00232  -0.04602  -0.02138
           A6          -0.07863  -0.07847   0.00310   0.04646  -0.07304
           A7           0.03019   0.03013   0.00044  -0.01918   0.00997
           D1           0.00107   0.00107   0.00000  -0.00068   0.00041
           D2          -0.00186  -0.00185   0.00002   0.00118  -0.00113
           D3          -0.00090  -0.00090   0.00000   0.00056  -0.00063
           D4           0.00590   0.00589   0.00018  -0.00215   0.00254
           D5          -0.01072  -0.01070  -0.00015   0.00527  -0.00610
           D6          -0.05546  -0.05533   0.00091   0.03648  -0.03531
                          R6        A1        A2        A3        A4
           R6           0.25839
           A1          -0.02049   0.15748
           A2           0.01664   0.00171   0.15894
           A3           0.00371   0.00080  -0.00065   0.15986
           A4          -0.03071  -0.00115   0.00213  -0.00095   0.12702
           A5          -0.01433  -0.00608   0.00429   0.00173   0.00867
           A6          -0.08328  -0.00516   0.00261   0.00259  -0.02805
           A7           0.05146   0.00448  -0.00159  -0.00289  -0.00751
           D1           0.00117   0.00008  -0.00002  -0.00006  -0.00006
           D2          -0.00115  -0.00003  -0.00002   0.00004  -0.00009
           D3          -0.00063  -0.00001  -0.00001   0.00002  -0.00004
           D4           0.02795   0.00167  -0.00114  -0.00052   0.00091
           D5          -0.03161  -0.00188   0.00116   0.00072  -0.00091
           D6          -0.01476   0.00043  -0.00133   0.00093  -0.00487
                          A5        A6        A7        D1        D2
           A5           0.13016
           A6          -0.01471   0.15436
           A7           0.01732  -0.01124   0.25059
           D1           0.00026  -0.00028   0.00009   0.01558
           D2          -0.00011   0.00042  -0.00024  -0.00001   0.00231
           D3          -0.00006   0.00019  -0.00012   0.00000   0.00001
           D4           0.00714   0.00262   0.00036   0.00001  -0.00010
           D5          -0.00792  -0.00133  -0.00082  -0.00003   0.00013
           D6           0.00213   0.01376  -0.00786  -0.00020   0.00025
                          D3        D4        D5        D6
           D3           0.00230
           D4          -0.00010   0.02033
           D5           0.00011  -0.00469   0.02028
           D6           0.00009   0.00101  -0.00006   0.01127
 ITU=  1  0  1  1  0
 Use linear search instead of GDIIS.
     Eigenvalues ---    0.00230   0.00905   0.00986   0.01561   0.02080
     Eigenvalues ---    0.09404   0.12481   0.15615   0.16015   0.19595
     Eigenvalues ---    0.26333   0.55332   0.55473   0.62803   1.31836
 RFO step:  Lambda=-1.93418100D-02 EMin= 2.29812102D-03
 Quartic linear search produced a step of -0.11858.
 Iteration  1 RMS(Cart)=  0.10310539 RMS(Int)=  0.00892948
 Iteration  2 RMS(Cart)=  0.00867014 RMS(Int)=  0.00086047
 Iteration  3 RMS(Cart)=  0.00005198 RMS(Int)=  0.00085915
 Iteration  4 RMS(Cart)=  0.00000005 RMS(Int)=  0.00085915
 Variable       Old X    -DE/DX   Delta X   Delta X   Delta X     New X
                                 (Linear)    (Quad)   (Total)
    R1        1.92866  -0.06868  -0.00245  -0.07593  -0.07838   1.85029
    R2        1.92826  -0.06839  -0.00245  -0.07553  -0.07798   1.85028
    R3        4.28465  -0.01117   0.02507  -0.24569  -0.22063   4.06402
    R4        1.74434   0.05410   0.00151   0.06807   0.06958   1.81393
    R5        1.88762  -0.03390  -0.03506   0.07558   0.04052   1.92815
    R6        1.83263  -0.00602   0.03546   0.13129   0.16675   1.99939
    A1        1.83499  -0.00237   0.00931   0.02111   0.03040   1.86539
    A2        2.37134  -0.00095  -0.00459  -0.02310  -0.02769   2.34365
    A3        2.07637   0.00330  -0.00468   0.00158  -0.00312   2.07325
    A4        2.03156  -0.01644  -0.02517  -0.05969  -0.08506   1.94650
    A5        1.87848   0.00378   0.02271   0.11850   0.14221   2.02069
    A6        1.79266   0.01588  -0.01002   0.11582   0.10465   1.89731
    A7        2.45168   0.00456  -0.00753   0.01073   0.00320   2.45488
    D1       -3.11312   0.00035  -0.00186   0.01233   0.01069  -3.10243
    D2        3.12448   0.00017   0.00132   0.00288   0.00437   3.12886
    D3        0.02236   0.00064  -0.00139   0.01881   0.01725   0.03962
    D4        1.60700  -0.00658   0.01049  -0.10090  -0.09237   1.51463
    D5       -2.67688   0.00651  -0.00429   0.09209   0.08975  -2.58713
    D6        2.04720   0.00697   0.01026   0.19319   0.20146   2.24866
         Item               Value     Threshold  Converged?
 Maximum Force            0.068683     0.000450     NO 
 RMS     Force            0.027474     0.000300     NO 
 Maximum Displacement     0.197135     0.001800     NO 
 RMS     Displacement     0.107322     0.001200     NO 
 Predicted change in Energy=-1.210961D-02
 GradGradGradGradGradGradGradGradGradGradGradGradGradGradGradGradGradGrad

                          Input orientation:                          
 ---------------------------------------------------------------------
 Center     Atomic      Atomic             Coordinates (Angstroms)
 Number     Number       Type             X           Y           Z
 ---------------------------------------------------------------------
      1          8           0        3.568674    0.179409    0.631290
      2          1           0        4.541838    0.137098    0.532014
      3          1           0        3.373413    0.960812    1.188040
      4          8           0        0.980147   -1.113321    0.024987
      5          1           0        1.937384   -1.060142   -0.022494
      6          1           0        0.537937   -0.579994   -0.724070
      7          1           0        0.573372   -2.090006    0.031990
 ---------------------------------------------------------------------
                    Distance matrix (angstroms):
                    1          2          3          4          5
     1  O    0.000000
     2  H    0.979129   0.000000
     3  H    0.979126   1.572924   0.000000
     4  O    2.956218   3.808709   3.373788   0.000000
     5  H    2.150588   2.919597   2.758954   0.959888   0.000000
     6  H    3.405739   4.257134   3.751023   1.020330   1.637438
     7  H    3.805422   4.578071   4.299322   1.058031   1.710005
                    6          7
     6  H    0.000000
     7  H    1.689089   0.000000
 Stoichiometry    H5O2(1+)
 Framework group  C1[X(H5O2)]
 Deg. of freedom    15
 Full point group                 C1      NOp   1
 Largest Abelian subgroup         C1      NOp   1
 Largest concise Abelian subgroup C1      NOp   1
                         Standard orientation:                         
 ---------------------------------------------------------------------
 Center     Atomic      Atomic             Coordinates (Angstroms)
 Number     Number       Type             X           Y           Z
 ---------------------------------------------------------------------
      1          8           0        1.507503    0.023027    0.012616
      2          1           0        2.305179    0.509935    0.304724
      3          1           0        1.818985   -0.757625   -0.489627
      4          8           0       -1.447333   -0.029909   -0.060630
      5          1           0       -0.608472    0.365195    0.187541
      6          1           0       -1.760071   -0.710615    0.632125
      7          1           0       -2.236977    0.648163   -0.250657
 ---------------------------------------------------------------------
 Rotational constants (GHZ):    179.7750827      5.7445077      5.6773920
 Standard basis: 6-31G(d,p) (6D, 7F)
 There are    55 symmetry adapted basis functions of A   symmetry.
 Integral buffers will be    131072 words long.
 Raffenetti 1 integral format.
 Two-electron integral symmetry is turned on.
    55 basis functions,    91 primitive gaussians,    55 cartesian basis functions
    10 alpha electrons       10 beta electrons
       nuclear repulsion energy        41.5140016162 Hartrees.
 NAtoms=    7 NActive=    7 NUniq=    7 SFac= 1.00D+00 NAtFMM=   60 NAOKFM=F Big=F
 One-electron integrals computed using PRISM.
 NBasis=    55 RedAO= T  NBF=    55
 NBsUse=    55 1.00D-06 NBFU=    55
 Initial guess read from the read-write file.
 B after Tr=     0.000000    0.000000    0.000000
         Rot=    1.000000    0.000000    0.000000    0.000000 Ang=   0.00 deg.
 Initial guess orbital symmetries:
       Occupied  (A) (A) (A) (A) (A) (A) (A) (A) (A) (A)
       Virtual   (A) (A) (A) (A) (A) (A) (A) (A) (A) (A) (A) (A)
                 (A) (A) (A) (A) (A) (A) (A) (A) (A) (A) (A) (A)
                 (A) (A) (A) (A) (A) (A) (A) (A) (A) (A) (A) (A)
                 (A) (A) (A) (A) (A) (A) (A) (A) (A)
 Harris functional with IExCor=  205 diagonalized for initial guess.
 ExpMin= 1.61D-01 ExpMax= 5.48D+03 ExpMxC= 8.25D+02 IAcc=1 IRadAn=         1 AccDes= 0.00D+00
 HarFok:  IExCor=  205 AccDes= 0.00D+00 IRadAn=         1 IDoV= 1
 ScaDFX=  1.000000  1.000000  1.000000  1.000000
 FoFCou: FMM=F IPFlag=           0 FMFlag=      100000 FMFlg1=           0
         NFxFlg=           0 DoJE=T BraDBF=F KetDBF=T FulRan=T
         Omega=  0.000000  0.000000  1.000000  0.000000  0.000000 ICntrl=     500 IOpCl=  0
         NMat0=    1 NMatS0=    1 NMatT0=    0 NMatD0=    1 NMtDS0=    0 NMtDT0=    0
         I1Cent=           4 NGrid=           0.
 Petite list used in FoFCou.
 Requested convergence on RMS density matrix=1.00D-08 within 128 cycles.
 Requested convergence on MAX density matrix=1.00D-06.
 Requested convergence on             energy=1.00D-06.
 No special actions if energy rises.
 Keep R1 ints in memory in canonical form, NReq=2034557.
 SCF Done:  E(RHF) =  -152.353545219     A.U. after   12 cycles
             Convg  =    0.2308D-08             -V/T =  2.0054
 Calling FoFJK, ICntrl=      2127 FMM=F ISym2X=0 I1Cent= 0 IOpClX= 0 NMat=1 NMatS=1 NMatT=0.
 ***** Axes restored to original set *****
 -------------------------------------------------------------------
 Center     Atomic                   Forces (Hartrees/Bohr)
 Number     Number              X              Y              Z
 -------------------------------------------------------------------
      1        8           0.015814154    0.018840070    0.010969774
      2        1          -0.035313126    0.002533672    0.004372652
      3        1           0.010673616   -0.028052560   -0.019526019
      4        8          -0.069197805   -0.042249954   -0.045158810
      5        1           0.018689686    0.005179929    0.006780848
      6        1           0.024635221   -0.024030489    0.039979350
      7        1           0.034698255    0.067779334    0.002582206
 -------------------------------------------------------------------
 Cartesian Forces:  Max     0.069197805 RMS     0.031549112

 GradGradGradGradGradGradGradGradGradGradGradGradGradGradGradGradGradGrad
 Berny optimization.
 Using GEDIIS/GDIIS optimizer.
 Internal  Forces:  Max     0.075891343 RMS     0.024546035
 Search for a local minimum.
 Step number   6 out of a maximum of   29
 All quantities printed in internal units (Hartrees-Bohrs-Radians)
 Mixed Optimization -- RFO/linear search
 Update second derivatives using D2CorX and points    5    6
 DE= -6.60D-03 DEPred=-1.21D-02 R= 5.45D-01
 SS=  1.41D+00  RLast= 4.39D-01 DXNew= 2.4000D+00 1.3177D+00
 Trust test= 5.45D-01 RLast= 4.39D-01 DXMaxT set to 1.43D+00
 The second derivative matrix:
                          R1        R2        R3        R4        R5
           R1           0.57395
           R2           0.01956   0.57463
           R3          -0.02440  -0.02431   0.01960
           R4          -0.00377  -0.00391   0.01941   0.56611
           R5          -0.00341  -0.00322  -0.00678   0.02699   0.61648
           R6           0.04530   0.04595  -0.00780   0.03294  -0.02110
           A1          -0.00096  -0.00091  -0.00151   0.00216  -0.01702
           A2          -0.00138  -0.00138   0.00000   0.00142   0.00939
           A3           0.00197   0.00193   0.00149  -0.00330   0.00751
           A4          -0.05683  -0.05672  -0.00192   0.02574  -0.02713
           A5           0.05151   0.05150  -0.00272  -0.02365  -0.01907
[...]
 Frequencies --  1794.2875              1974.9932              4026.0715
 Red. masses --     1.0885                 1.1337                 1.0426
 Frc consts  --     2.0646                 2.6053                 9.9567
 IR Inten    --    32.7666              2344.1620               240.9966
 Raman Activ --     2.9047                 7.8429                35.3841
 Depolar (P) --     0.7076                 0.3466                 0.1737
 Depolar (U) --     0.8288                 0.5148                 0.2959
  Atom  AN      X      Y      Z        X      Y      Z        X      Y      Z
     1   8     0.06  -0.01   0.00     0.03   0.00   0.00     0.00   0.00   0.00
     2   1    -0.47   0.33   0.14    -0.25   0.17   0.07     0.04   0.06   0.02
     3   1    -0.44  -0.32  -0.09    -0.29  -0.18  -0.06     0.04  -0.06  -0.02
     4   8    -0.04   0.00   0.01     0.09   0.00   0.00    -0.04   0.02   0.01
     5   1    -0.05   0.19  -0.07    -0.59  -0.19  -0.05    -0.02   0.01   0.00
     6   1     0.26  -0.17   0.16    -0.34   0.19  -0.21     0.33   0.05  -0.62
     7   1     0.33   0.00  -0.26    -0.34   0.00   0.29     0.35  -0.37   0.48
                    13                     14                     15
                     A                      A                      A
 Frequencies --  4086.9458              4131.4013              4192.7759
 Red. masses --     1.0440                 1.0904                 1.0876
 Frc consts  --    10.2742                10.9654                11.2652
 IR Inten    --   106.7073               437.4335               325.2855
 Raman Activ --    56.5605                18.6993                26.0826
 Depolar (P) --     0.0932                 0.7498                 0.7473
 Depolar (U) --     0.1705                 0.8570                 0.8554
  Atom  AN      X      Y      Z        X      Y      Z        X      Y      Z
     1   8    -0.05   0.00   0.00     0.00   0.00   0.00     0.00   0.07   0.02
     2   1     0.38   0.54   0.17     0.00   0.00   0.00    -0.42  -0.56  -0.18
     3   1     0.39  -0.57  -0.22     0.00   0.00   0.00     0.38  -0.53  -0.21
     4   8     0.01   0.00   0.00     0.00  -0.03   0.07     0.00   0.00   0.00
     5   1    -0.02   0.00   0.00     0.00   0.00   0.00     0.00   0.00   0.00
     6   1    -0.04  -0.01   0.06     0.33   0.04  -0.62     0.00   0.00   0.00
     7   1    -0.04   0.04  -0.05    -0.35   0.38  -0.48     0.00   0.00   0.00

 -------------------
 - Thermochemistry -
 -------------------
 Temperature   298.150 Kelvin.  Pressure   1.00000 Atm.
 Atom     1 has atomic number  8 and mass  15.99491
 Atom     2 has atomic number  1 and mass   1.00783
 Atom     3 has atomic number  1 and mass   1.00783
 Atom     4 has atomic number  8 and mass  15.99491
 Atom     5 has atomic number  1 and mass   1.00783
 Atom     6 has atomic number  1 and mass   1.00783
 Atom     7 has atomic number  1 and mass   1.00783
 Molecular mass:    37.02895 amu.
 Principal axes and moments of inertia in atomic units:
                           1         2         3
     Eigenvalues --     9.30528 209.73557 210.03075
           X            0.99994  -0.01022  -0.00439
           Y            0.00991   0.99779  -0.06571
           Z            0.00505   0.06566   0.99783
 This molecule is an asymmetric top.
 Rotational symmetry number  1.
 Rotational temperatures (Kelvin)      9.30803     0.41297     0.41239
 Rotational constants (GHZ):         193.94810     8.60484     8.59275
 Zero-point vibrational energy     161452.1 (Joules/Mol)
                                   38.58798 (Kcal/Mol)
 Warning -- explicit consideration of   6 degrees of freedom as
           vibrations may cause significant error
 Vibrational temperatures:    204.23   314.77   518.22   676.71   711.54
          (Kelvin)            734.66  2012.50  2074.71  2516.48  2581.58
                             2841.57  5792.61  5880.20  5944.16  6032.46
 
 Zero-point correction=                           0.061494 (Hartree/Particle)
 Thermal correction to Energy=                    0.066575
 Thermal correction to Enthalpy=                  0.067519
 Thermal correction to Gibbs Free Energy=         0.036469
 Sum of electronic and zero-point Energies=           -152.326444
 Sum of electronic and thermal Energies=              -152.321363
 Sum of electronic and thermal Enthalpies=            -152.320418
 Sum of electronic and thermal Free Energies=         -152.351469
 
                     E (Thermal)             CV                S
                      KCal/Mol        Cal/Mol-Kelvin    Cal/Mol-Kelvin
 Total                   41.776             15.312             65.351
 Electronic               0.000              0.000              0.000
 Translational            0.889              2.981             36.757
 Rotational               0.889              2.981             20.644
 Vibrational             39.999              9.350              7.951
 Vibration     1          0.615              1.911              2.777
 Vibration     2          0.647              1.812              1.969
 Vibration     3          0.735              1.554              1.121
 Vibration     4          0.827              1.316              0.737
 Vibration     5          0.850              1.262              0.672
 Vibration     6          0.866              1.226              0.632
                       Q            Log10(Q)             Ln(Q)
 Total Bot       0.168114D-16        -16.774396        -38.624474
 Total V=0       0.324160D+12         11.510759         26.504502
 Vib (Bot)       0.261908D-27        -27.581852        -63.509561
 Vib (Bot)    1  0.143168D+01          0.155847          0.358852
 Vib (Bot)    2  0.904601D+00         -0.043543         -0.100261
 Vib (Bot)    3  0.508822D+00         -0.293434         -0.675657
 Vib (Bot)    4  0.358519D+00         -0.445487         -1.025773
 Vib (Bot)    5  0.333935D+00         -0.476338         -1.096810
 Vib (Bot)    6  0.318826D+00         -0.496446         -1.143108
 Vib (V=0)       0.505014D+01          0.703303          1.619415
 Vib (V=0)    1  0.201648D+01          0.304595          0.701355
 Vib (V=0)    2  0.153359D+01          0.185709          0.427610
 Vib (V=0)    3  0.121337D+01          0.083994          0.193403
 Vib (V=0)    4  0.111525D+01          0.047373          0.109081
 Vib (V=0)    5  0.110126D+01          0.041889          0.096454
 Vib (V=0)    6  0.109300D+01          0.038621          0.088927
 Electronic      0.100000D+01          0.000000          0.000000
 Translational   0.885661D+07          6.947267         15.996674
 Rotational      0.724751D+04          3.860189          8.888413
 ***** Axes restored to original set *****
 -------------------------------------------------------------------
 Center     Atomic                   Forces (Hartrees/Bohr)
 Number     Number              X              Y              Z
 -------------------------------------------------------------------
      1        8          -0.000028941   -0.000056097    0.000328207
      2        1          -0.000038175   -0.000018768    0.000002705
      3        1           0.000020499   -0.000024050   -0.000026819
      4        8           0.000068715   -0.000062212    0.000313245
      5        1           0.000003360    0.000179588   -0.000630213
      6        1          -0.000038723   -0.000007186   -0.000020924
      7        1           0.000013265   -0.000011275    0.000033798
 -------------------------------------------------------------------
 Cartesian Forces:  Max     0.000630213 RMS     0.000176584

 GradGradGradGradGradGradGradGradGradGradGradGradGradGradGradGradGradGrad
 Berny optimization.
 Internal  Forces:  Max     0.000086228 RMS     0.000033577
 Search for a local minimum.
 Step number   1 out of a maximum of    2
 All quantities printed in internal units (Hartrees-Bohrs-Radians)
 Second derivative matrix not updated -- analytic derivatives used.
 The second derivative matrix:
                          R1        R2        R3        R4        R5
           R1           0.61669
           R2          -0.00247   0.61479
           R3           0.00443   0.00488   0.08840
           R4          -0.00302  -0.00295   0.12555   0.25149
           R5           0.00069   0.00065  -0.00448   0.00451   0.59755
           R6           0.00071   0.00065  -0.00447   0.00444  -0.00128
           A1           0.01136   0.01087   0.00562  -0.01425   0.00018
           A2          -0.00417  -0.00730  -0.00292   0.00828  -0.00016
           A3          -0.00717  -0.00354  -0.00270   0.00601   0.00001
           A4           0.00013   0.00029   0.00673  -0.00246   0.00150
           A5           0.00008   0.00010   0.00538  -0.00257  -0.00504
           A6          -0.00021  -0.00009  -0.00993   0.00594   0.00673
           A7           0.00035  -0.00058  -0.00048   0.00063   0.00047
           D1          -0.00029  -0.00023   0.00004  -0.00082  -0.00035
           D2           0.00049   0.00054   0.00017   0.00000   0.00024
           D3          -0.00048  -0.00055  -0.00014   0.00004  -0.00018
           D4           0.00004  -0.00021   0.00018  -0.00179  -0.00375
           D5          -0.00003   0.00022  -0.00007   0.00183   0.00375
           D6           0.00003   0.00046   0.00489   0.00054   0.00292
                          R6        A1        A2        A3        A4
           R6           0.59783
           A1           0.00016   0.07932
           A2          -0.00018  -0.03943   0.04264
           A3          -0.00001  -0.03986  -0.00328   0.04318
           A4          -0.00409  -0.00078   0.00104  -0.00030   0.06853
           A5          -0.00026  -0.00070   0.00075  -0.00002  -0.02306
           A6           0.00680   0.00115  -0.00097  -0.00019  -0.03860
           A7           0.00120   0.00055   0.00430  -0.00499  -0.00467
           D1           0.00032   0.00071  -0.00084   0.00008   0.00043
           D2          -0.00019   0.00212  -0.00145  -0.00066  -0.00058
           D3           0.00016  -0.00213   0.00157   0.00051   0.00001
           D4          -0.00318   0.00003  -0.00046   0.00042   0.00116
           D5           0.00315  -0.00006   0.00047  -0.00044  -0.00217
           D6           0.00370  -0.00071   0.00145  -0.00074  -0.00050
                          A5        A6        A7        D1        D2
           A5           0.05257
           A6          -0.03573   0.07644
           A7           0.00498  -0.00196   0.05611
           D1          -0.00048   0.00009   0.00158   0.00078
           D2           0.00048  -0.00003  -0.00112  -0.00019   0.00086
           D3           0.00000  -0.00003   0.00098   0.00064   0.00048
           D4           0.01195  -0.01574   0.00192   0.00025   0.00072
           D5          -0.01111   0.01574  -0.00139   0.00035   0.00050
           D6           0.01015  -0.00803  -0.00051  -0.00013   0.00000
                          D3        D4        D5        D6
           D3           0.00138
           D4           0.00098   0.00584
           D5           0.00094  -0.00410   0.00556
           D6          -0.00003   0.00025  -0.00018   0.00602
 ITU=  0
     Eigenvalues ---    0.00002   0.00096   0.00336   0.00556   0.01711
     Eigenvalues ---    0.04284   0.05809   0.08748   0.11957   0.12227
     Eigenvalues ---    0.32040   0.59683   0.59904   0.61401   0.61845
 Quadratic step=8.895D-01 exceeds max=3.000D-01 adjusted using Lamda=-3.984D-05.
 Angle between NR and scaled steps=   0.81 degrees.
 Angle between quadratic step and forces=  82.45 degrees.
 Linear search not attempted -- first point.
 Iteration  1 RMS(Cart)=  0.00391510 RMS(Int)=  0.00117925
 Iteration  2 RMS(Cart)=  0.00021399 RMS(Int)=  0.00001677
 Iteration  3 RMS(Cart)=  0.00000229 RMS(Int)=  0.00001672
 Iteration  4 RMS(Cart)=  0.00000000 RMS(Int)=  0.00001672
 Variable       Old X    -DE/DX   Delta X   Delta X   Delta X     New X
                                 (Linear)    (Quad)   (Total)
    R1        1.79196  -0.00003   0.00000  -0.00008  -0.00008   1.79188
    R2        1.79291  -0.00003   0.00000  -0.00010  -0.00010   1.79281
    R3        2.48185   0.00000   0.00000   0.00154   0.00154   2.48339
    R4        2.04325  -0.00009   0.00000  -0.00120  -0.00120   2.04205
    R5        1.80003   0.00003   0.00000   0.00005   0.00005   1.80008
    R6        1.79990   0.00002   0.00000   0.00007   0.00007   1.79997
    A1        1.92481   0.00000   0.00000   0.00001  -0.00003   1.92478
    A2        2.20226  -0.00005   0.00000   0.00009   0.00005   2.20230
    A3        2.15340   0.00004   0.00000   0.00107   0.00103   2.15443
    A4        2.06114   0.00006   0.00000   0.00152   0.00152   2.06266
    A5        2.06920  -0.00005   0.00000  -0.00144  -0.00144   2.06776
    A6        1.96642   0.00000   0.00000   0.00022   0.00022   1.96663
    A7        3.09328   0.00001   0.00000  -0.00047  -0.00047   3.09281
    D1       -3.06674   0.00001   0.00000  -0.01607  -0.01607  -3.08281
    D2       -2.70183  -0.00001   0.00000  -0.13624  -0.13624  -2.83808
    D3        0.52677   0.00000   0.00000  -0.15493  -0.15493   0.37185
    D4        1.39467   0.00000   0.00000   0.15350   0.15350   1.54817
    D5       -2.41035   0.00003   0.00000   0.15405   0.15405  -2.25630
    D6        2.51526   0.00001   0.00000  -0.00013  -0.00013   2.51513
         Item               Value     Threshold  Converged?
 Maximum Force            0.000086     0.000450     YES
 RMS     Force            0.000034     0.000300     YES
 Maximum Displacement     0.006748     0.001800     NO 
 RMS     Displacement     0.003908     0.001200     NO 
 Predicted change in Energy=-4.683243D-06
 GradGradGradGradGradGradGradGradGradGradGradGradGradGradGradGradGradGrad

 1\1\GINC-NISER-THINKCENTRE-M93P\Freq\RHF\6-31G(d,p)\H5O2(1+)\STUDENT\0
 1-Mar-2021\0\\#N Geom=AllCheck Guess=TCheck SCRF=Check GenChk RHF/6-31
 G(d,p) Freq\\Title Card Required\\1,1\O,3.2145815419,0.040405951,0.586
 2519909\H,4.0737517305,-0.1507712452,0.2334343982\H,3.2808078963,0.677
 145721,1.2864914686\O,1.1358024236,-0.977558669,-0.0245839377\H,2.0883
 855504,-0.5414852088,0.242823688\H,0.7425597398,-0.7223123884,-0.85375
 96465\H,0.9768755275,-1.8915684706,0.1910985183\\Version=EM64L-G09RevC
 .01\State=1-A\HF=-152.3879376\RMSD=3.008e-09\RMSF=1.766e-04\ZeroPoint=
 0.0614939\Thermal=0.066575\Dipole=-0.0830995,-0.3887716,-0.3443325\Dip
 oleDeriv=-1.0401206,-0.2060539,-0.1416397,-0.2034666,-0.785456,-0.0278
 652,-0.1310289,-0.0231022,-0.7090135,0.4306457,-0.0383206,-0.0374858,-
 0.0663184,0.4008279,-0.0469112,-0.0681689,-0.0519586,0.415778,0.318428
 9,-0.0343662,-0.00952,-0.0087753,0.4667312,0.0120333,0.0187566,0.01664
 49,0.4691254,-1.0987728,-0.2620373,-0.1624663,-0.241109,-0.6826673,-0.
 0731665,-0.1440488,-0.0709905,-0.6086792,1.5211901,0.5873318,0.3703051
 ,0.5749295,0.6590096,0.2004073,0.3550267,0.1964977,0.4894493,0.458714,
 -0.0676598,0.0443601,-0.0873518,0.4002209,-0.037315,0.0480388,-0.01720
 57,0.5178177,0.4099147,0.0211059,-0.0635534,0.0320916,0.5413335,-0.027
 1827,-0.0785755,-0.0498856,0.4255222\Polar=11.8031262,1.9295943,9.4794
 953,1.332098,0.9896485,8.8726282\PolarDeriv=-3.575893,0.394167,-0.5220
 084,0.8908282,-0.3423852,-0.8351638,0.6889106,-0.4794439,-1.3380712,-0
 .4251854,-1.2739405,-1.329192,1.0716025,-0.4073239,-1.3359705,-0.89701
 04,-1.3755737,-1.6228532,5.4455091,-0.500949,0.3840932,-1.3235379,0.40
 04453,0.6759715,-0.8672078,1.0138928,-0.4166559,0.0601113,-0.3754424,-
 0.0189024,-1.4289763,-0.0421974,-0.1037758,1.3408058,-0.2118693,-0.913
 3154,0.3448415,0.6027557,0.1542853,0.6591016,0.2300015,0.2845851,0.487
 2116,0.4757505,2.8445766,0.2621356,2.0907947,1.3646799,0.585409,0.4085
 43,1.3815238,0.4965571,2.1586357,3.2118165,-2.859865,-1.213774,-0.2980
 33,-0.1706832,-0.5453982,0.622793,-0.7338529,0.128493,3.2852035,-0.759
 6849,-0.3134531,-0.2360689,0.3919131,-0.6998151,-0.1925395,0.8948031,-
 0.3320146,2.9048604,2.5472733,1.4372772,1.0184709,1.1226048,-0.1374354
 ,0.3262408,0.7543541,0.5491079,0.1330753,0.5950605,-0.0287265,0.266932
 2,0.3112645,0.4193443,0.3839526,0.2607052,0.0006033,-0.0623302,-1.3900
 438,0.3647144,-0.2992856,-1.4013866,0.2499741,-0.8942046,0.3666979,-0.
 5589628,0.3750788,0.3069654,-0.928973,0.478253,-1.0960763,0.1187663,-0
 .5993942,-1.7359332,0.7808191,-3.8611817,-0.5118222,-1.0841914,-0.4375
 223,0.223073,0.1447978,-0.1802219,-0.6961136,-1.1288376,-4.8832072,-0.
 0394025,0.8297408,-0.5257018,0.1648635,0.2026827,0.4662036,-0.3599275,
 -1.0206004,0.3430035\HyperPolar=7.2763168,-5.6180515,-4.3946317,-8.391
 0358,-9.7730919,2.9540482,7.1943335,-3.0546989,7.3605727,-2.9597472\PG
 =C01 [X(H5O2)]\NImag=0\\0.67427595,-0.02326457,0.36118513,-0.14520461,
 0.39443410,0.46669394,-0.51540308,0.10140926,0.19873636,0.51014380,0.0
 6792419,-0.05727927,-0.07307750,-0.10014441,0.05445919,0.15999072,-0.0
 7827631,-0.11187193,-0.19553778,0.07511199,0.11559239,-0.08277499,-0.0
 5449930,-0.04472385,0.00989678,0.03242921,0.03464301,0.06354489,-0.020
 80113,-0.27234111,-0.29872462,-0.00386073,-0.00269978,-0.00294501,0.02
 614633,0.27779988,-0.00730626,-0.29429473,-0.32843283,-0.00611487,-0.0
 0856493,-0.00846053,0.01749161,0.30394934,0.33778775,-0.06972642,-0.04
 343665,-0.02754759,0.00000489,-0.00595195,-0.00580133,-0.00980315,0.00
 169759,0.00443493,0.40582593,-0.04483636,-0.00691953,-0.01279936,-0.00
 099908,-0.00438592,-0.00473604,-0.00294052,0.00075464,0.00145750,0.150
 73462,0.72994204,-0.02920200,-0.01339990,0.00653024,-0.00075677,-0.003
 80644,-0.00310722,-0.00082903,0.00042324,0.00073465,0.28464688,-0.2595
 1265,0.57593805,0.00259410,0.02137158,0.01916375,-0.00310643,0.0074108
 2,0.00789971,0.01966276,-0.00227163,-0.00789335,-0.12785377,-0.0341359
 1,-0.03117789,0.08967778,0.02206778,-0.02219940,-0.01169415,0.00432055
 ,0.00949613,0.01103891,-0.00041858,-0.00382715,-0.00198102,-0.02207608
 ,-0.07399686,0.02442007,0.00123841,0.08250714,0.02198080,-0.01040400,-
 0.03122223,0.00400400,0.01045920,0.00703498,-0.00611167,-0.00216264,-0
 .00212098,-0.01811650,0.02681957,-0.05798335,0.00443593,-0.00977037,0.
 07976791,-0.00302541,-0.00186254,0.00152844,-0.00081008,-0.00052102,-0
 .00065961,-0.00014519,-0.00063241,-0.00026389,-0.13176348,0.02976145,-
 0.20511748,0.00367572,0.01455377,-0.01972616,0.12524256,-0.00545763,-0
 .00415427,0.00006646,-0.00020826,-0.00024345,-0.00042951,-0.00067777,0
 .00055076,-0.00008620,0.01435425,-0.10286311,0.11404968,0.01183696,0.0
 1396683,-0.01098095,-0.04126866,0.09463878,0.00445955,0.00283603,0.000
 51562,-0.00026389,0.00016713,0.00090632,-0.00002093,-0.00030126,-0.000
 22282,-0.21209263,0.14924335,-0.44824647,-0.00569833,-0.00677874,-0.00
 181519,0.21294517,-0.14163894,0.45020516,-0.00594014,0.00028221,-0.001
 95251,-0.00072589,-0.00114685,-0.00053472,-0.00038110,-0.00027802,-0.0
 0034816,-0.06668399,-0.09758420,-0.01756371,0.01534984,-0.01968585,0.0
 1353359,0.00682589,0.02142111,0.00067106,0.05155539,0.00436773,0.00170
 843,0.00179507,-0.00051733,0.00065310,0.00023596,-0.00003938,-0.000237
 25,-0.00047995,-0.09532180,-0.54253126,0.13782600,-0.00545024,-0.00594
 668,-0.00396080,-0.00003059,-0.00189554,-0.00352757,0.09699161,0.54824
 920,-0.00471820,-0.00089520,-0.00221281,-0.00006705,-0.00028945,-0.000
 09401,-0.00044914,-0.00023904,0.00071476,-0.02552376,0.09952764,-0.073
 86590,0.01327017,-0.00523469,0.00633885,0.01129353,0.03901945,-0.00134
 263,0.00619445,-0.13188871,0.07046174\\0.00002894,0.00005610,-0.000328
 21,0.00003817,0.00001877,-0.00000271,-0.00002050,0.00002405,0.00002682
 ,-0.00006871,0.00006221,-0.00031325,-0.00000336,-0.00017959,0.00063021
 ,0.00003872,0.00000719,0.00002092,-0.00001327,0.00001128,-0.00003380\\
 \@


 NOTHING RESEMBLES A NEW PHENOMENON AS MUCH AS A MISTAKE.

                               -- ENRICO FERMI (?)
 Job cpu time:  0 days  0 hours  0 minutes  2.2 seconds.
 File lengths (MBytes):  RWF=      5 Int=      0 D2E=      0 Chk=      1 Scr=      1
 Normal termination of Gaussian 09 at Mon Mar  1 12:51:01 2021.
