 Entering Gaussian System, Link 0=g09
 Input=h2h3b3l.com
 Output=h2h3b3l.log
 Initial command:
 /home/student/g09/l1.exe /home/student/singh/Gau-16261.inp -scrdir=/home/student/singh/
 Entering Link 1 = /home/student/g09/l1.exe PID=     16263.
  
 Copyright (c) 1988,1990,1992,1993,1995,1998,2003,2009,2011,
            Gaussian, Inc.  All Rights Reserved.
  
 This is part of the Gaussian(R) 09 program.  It is based on
 the Gaussian(R) 03 system (copyright 2003, Gaussian, Inc.),
 the Gaussian(R) 98 system (copyright 1998, Gaussian, Inc.),
 the Gaussian(R) 94 system (copyright 1995, Gaussian, Inc.),
 the Gaussian 92(TM) system (copyright 1992, Gaussian, Inc.),
 the Gaussian 90(TM) system (copyright 1990, Gaussian, Inc.),
 the Gaussian 88(TM) system (copyright 1988, Gaussian, Inc.),
 the Gaussian 86(TM) system (copyright 1986, Carnegie Mellon
 University), and the Gaussian 82(TM) system (copyright 1983,
 Carnegie Mellon University). Gaussian is a federally registered
 trademark of Gaussian, Inc.
  
 This software contains proprietary and confidential information,
 including trade secrets, belonging to Gaussian, Inc.
  
 This software is provided under written license and may be
 used, copied, transmitted, or stored only in accord with that
 written license.
  
 The following legend is applicable only to US Government
 contracts under FAR:
  
                    RESTRICTED RIGHTS LEGEND
  
 Use, reproduction and disclosure by the US Government is
 subject to restrictions as set forth in subparagraphs (a)
 and (c) of the Commercial Computer Software - Restricted
 Rights clause in FAR 52.227-19.
  
 Gaussian, Inc.
 340 Quinnipiac St., Bldg. 40, Wallingford CT 06492
  
  
 ---------------------------------------------------------------
 Warning -- This program may not be used in any manner that
 competes with the business of Gaussian, Inc. or will provide
 assistance to any competitor of Gaussian, Inc.  The licensee
 of this program is prohibited from giving any competitor of
 Gaussian, Inc. access to this program.  By using this program,
 the user acknowledges that Gaussian, Inc. is engaged in the
 business of creating and licensing software in the field of
 computational chemistry and represents and warrants to the
 licensee that it is not a competitor of Gaussian, Inc. and that
 it will not use this program in any manner prohibited above.
 ---------------------------------------------------------------
  

 Cite this work as:
 Gaussian 09, Revision C.01,
 M. J. Frisch, G. W. Trucks, H. B. Schlegel, G. E. Scuseria, 
 M. A. Robb, J. R. Cheeseman, G. Scalmani, V. Barone, B. Mennucci, 
 G. A. Petersson, H. Nakatsuji, M. Caricato, X. Li, H. P. Hratchian, 
 A. F. Izmaylov, J. Bloino, G. Zheng, J. L. Sonnenberg, M. Hada, 
 M. Ehara, K. Toyota, R. Fukuda, J. Hasegawa, M. Ishida, T. Nakajima, 
 Y. Honda, O. Kitao, H. Nakai, T. Vreven, J. A. Montgomery, Jr., 
 J. E. Peralta, F. Ogliaro, M. Bearpark, J. J. Heyd, E. Brothers, 
 K. N. Kudin, V. N. Staroverov, T. Keith, R. Kobayashi, J. Normand, 
 K. Raghavachari, A. Rendell, J. C. Burant, S. S. Iyengar, J. Tomasi, 
 M. Cossi, N. Rega, J. M. Millam, M. Klene, J. E. Knox, J. B. Cross, 
 V. Bakken, C. Adamo, J. Jaramillo, R. Gomperts, R. E. Stratmann, 
 O. Yazyev, A. J. Austin, R. Cammi, C. Pomelli, J. W. Ochterski, 
 R. L. Martin, K. Morokuma, V. G. Zakrzewski, G. A. Voth, 
 P. Salvador, J. J. Dannenberg, S. Dapprich, A. D. Daniels, 
 O. Farkas, J. B. Foresman, J. V. Ortiz, J. Cioslowski, 
 and D. J. Fox, Gaussian, Inc., Wallingford CT, 2010.
 
 ******************************************
 Gaussian 09:  EM64L-G09RevC.01 23-Sep-2011
                 1-Mar-2021 
 ******************************************
 %chk=h2h3b3l.chk
 ------------------------
 # opt freq B3LYP/6-31g**
 ------------------------
 1/14=-1,18=20,19=15,26=3,38=1/1,3;
 2/9=110,12=2,17=6,18=5,40=1/2;
 3/5=1,6=6,7=101,11=2,16=1,25=1,30=1,71=1,74=-5/1,2,3;
 4//1;
 5/5=2,38=5/2;
 6/7=2,8=2,9=2,10=2,28=1/1;
 7//1,2,3,16;
 1/14=-1,18=20,19=15/3(2);
 2/9=110/2;
 99//99;
 2/9=110/2;
 3/5=1,6=6,7=101,11=2,16=1,25=1,30=1,71=1,74=-5/1,2,3;
 4/5=5,16=3/1;
 5/5=2,38=5/2;
 7//1,2,3,16;
 1/14=-1,18=20,19=15/3(-5);
 2/9=110/2;
 6/7=2,8=2,9=2,10=2,19=2,28=1/1;
 99/9=1/99;
 ------
 b3Llyp
 ------
 Charge =  1 Multiplicity = 1
 Symbolic Z-Matrix:
 O                     0.90643   1.37427   0. 
 H                     1.86643   1.37427   0. 
 H                     0.58598   2.2792    0. 
 O                    -0.46784  -0.73099   0. 
 H                    -1.3414   -1.51642  -0.96093 
 H                    -1.17649  -1.34969   2.06714 
 H                     0.33621   0.49532  -0.03651 
 

 GradGradGradGradGradGradGradGradGradGradGradGradGradGradGradGradGradGrad
 Berny optimization.
 Initialization pass.
                           ----------------------------
                           !    Initial Parameters    !
                           ! (Angstroms and Degrees)  !
 --------------------------                            --------------------------
 ! Name  Definition              Value          Derivative Info.                !
 --------------------------------------------------------------------------------
 ! R1    R(1,2)                  0.96           estimate D2E/DX2                !
 ! R2    R(1,3)                  0.96           estimate D2E/DX2                !
 ! R3    R(1,7)                  1.0484         estimate D2E/DX2                !
 ! R4    R(4,5)                  1.5177         estimate D2E/DX2                !
 ! R5    R(4,6)                  2.2711         estimate D2E/DX2                !
 ! R6    R(4,7)                  1.4669         estimate D2E/DX2                !
 ! A1    A(2,1,3)              109.5            estimate D2E/DX2                !
 ! A2    A(2,1,7)              122.9512         estimate D2E/DX2                !
 ! A3    A(3,1,7)              127.4996         estimate D2E/DX2                !
 ! A4    A(5,4,6)              104.8153         estimate D2E/DX2                !
 ! A5    A(5,4,7)              137.0875         estimate D2E/DX2                !
 ! A6    A(6,4,7)              114.9251         estimate D2E/DX2                !
 ! A7    L(1,7,4,6,-1)         176.57           estimate D2E/DX2                !
 ! A8    L(1,7,4,6,-2)         180.2103         estimate D2E/DX2                !
 ! D1    D(2,1,4,5)           -107.456          estimate D2E/DX2                !
 ! D2    D(2,1,4,6)             97.0383         estimate D2E/DX2                !
 ! D3    D(3,1,4,5)             72.544          estimate D2E/DX2                !
 ! D4    D(3,1,4,6)            -82.9617         estimate D2E/DX2                !
 --------------------------------------------------------------------------------
 Trust Radius=3.00D-01 FncErr=1.00D-07 GrdErr=1.00D-06
 Number of steps in this run=     28 maximum allowed number of steps=    100.
 GradGradGradGradGradGradGradGradGradGradGradGradGradGradGradGradGradGrad

                          Input orientation:                          
 ---------------------------------------------------------------------
 Center     Atomic      Atomic             Coordinates (Angstroms)
 Number     Number       Type             X           Y           Z
 ---------------------------------------------------------------------
      1          8           0        0.906433    1.374269    0.000000
      2          1           0        1.866433    1.374269    0.000000
      3          1           0        0.585978    2.279205    0.000000
      4          8           0       -0.467836   -0.730994    0.000000
      5          1           0       -1.341401   -1.516425   -0.960933
      6          1           0       -1.176490   -1.349693    2.067138
      7          1           0        0.336208    0.495319   -0.036506
 ---------------------------------------------------------------------
                    Distance matrix (angstroms):
                    1          2          3          4          5
     1  O    0.000000
     2  H    0.960000   0.000000
     3  H    0.960000   1.567952   0.000000
     4  O    2.514110   3.143397   3.189330   0.000000
     5  H    3.785797   4.423765   4.364056   1.517698   0.000000
     6  H    4.003948   4.577380   4.533018   2.271131   3.037138
     7  H    1.048352   1.765070   1.801657   1.466855   2.777778
                    6          7
     6  H    0.000000
     7  H    3.180824   0.000000
 Stoichiometry    H5O2(1+)
 Framework group  C1[X(H5O2)]
 Deg. of freedom    15
 Full point group                 C1      NOp   1
 Largest Abelian subgroup         C1      NOp   1
 Largest concise Abelian subgroup C1      NOp   1
                         Standard orientation:                         
 ---------------------------------------------------------------------
 Center     Atomic      Atomic             Coordinates (Angstroms)
 Number     Number       Type             X           Y           Z
 ---------------------------------------------------------------------
      1          8           0       -1.292448    0.024054    0.015469
      2          1           0       -1.841449    0.025095   -0.772057
      3          1           0       -1.849716    0.086469    0.794671
      4          8           0        1.216245   -0.123449   -0.058345
      5          1           0        2.303283   -1.137489    0.247400
      6          1           0        2.246692    1.895031    0.089830
      7          1           0       -0.249186   -0.073943   -0.016833
 ---------------------------------------------------------------------
 Rotational constants (GHZ):     77.8224979      7.3109154      6.9313168
 Standard basis: 6-31G(d,p) (6D, 7F)
 There are    55 symmetry adapted basis functions of A   symmetry.
 Integral buffers will be    131072 words long.
 Raffenetti 2 integral format.
 Two-electron integral symmetry is turned on.
    55 basis functions,    91 primitive gaussians,    55 cartesian basis functions
    10 alpha electrons       10 beta electrons
       nuclear repulsion energy        40.6531509435 Hartrees.
 NAtoms=    7 NActive=    7 NUniq=    7 SFac= 1.00D+00 NAtFMM=   60 NAOKFM=F Big=F
 One-electron integrals computed using PRISM.
 NBasis=    55 RedAO= T  NBF=    55
 NBsUse=    55 1.00D-06 NBFU=    55
 Harris functional with IExCor=  402 diagonalized for initial guess.
 ExpMin= 1.61D-01 ExpMax= 5.48D+03 ExpMxC= 8.25D+02 IAcc=1 IRadAn=         1 AccDes= 0.00D+00
 HarFok:  IExCor=  402 AccDes= 0.00D+00 IRadAn=         1 IDoV= 1
 ScaDFX=  1.000000  1.000000  1.000000  1.000000
 FoFCou: FMM=F IPFlag=           0 FMFlag=      100000 FMFlg1=           0
         NFxFlg=           0 DoJE=T BraDBF=F KetDBF=T FulRan=T
         Omega=  0.000000  0.000000  1.000000  0.000000  0.000000 ICntrl=     500 IOpCl=  0
         NMat0=    1 NMatS0=    1 NMatT0=    0 NMatD0=    1 NMtDS0=    0 NMtDT0=    0
         I1Cent=           4 NGrid=           0.
 Petite list used in FoFCou.
 Initial guess orbital symmetries:
       Occupied  (A) (A) (A) (A) (A) (A) (A) (A) (A) (A)
       Virtual   (A) (A) (A) (A) (A) (A) (A) (A) (A) (A) (A) (A)
                 (A) (A) (A) (A) (A) (A) (A) (A) (A) (A) (A) (A)
                 (A) (A) (A) (A) (A) (A) (A) (A) (A) (A) (A) (A)
                 (A) (A) (A) (A) (A) (A) (A) (A) (A)
 The electronic state of the initial guess is 1-A.
 Requested convergence on RMS density matrix=1.00D-08 within 128 cycles.
 Requested convergence on MAX density matrix=1.00D-06.
 Requested convergence on             energy=1.00D-06.
 No special actions if energy rises.
 Keep R1 ints in memory in canonical form, NReq=2145012.
 Integral accuracy reduced to 1.0D-05 until final iterations.
 EnCoef did     3 forward-backward iterations
 Initial convergence to 1.0D-05 achieved.  Increase integral accuracy.
 SCF Done:  E(RB3LYP) =  -152.868762972     A.U. after   18 cycles
             Convg  =    0.7141D-08             -V/T =  2.0121

 **********************************************************************

            Population analysis using the SCF density.

 **********************************************************************

 Orbital symmetries:
       Occupied  (A) (A) (A) (A) (A) (A) (A) (A) (A) (A)
       Virtual   (A) (A) (A) (A) (A) (A) (A) (A) (A) (A) (A) (A)
                 (A) (A) (A) (A) (A) (A) (A) (A) (A) (A) (A) (A)
                 (A) (A) (A) (A) (A) (A) (A) (A) (A) (A) (A) (A)
                 (A) (A) (A) (A) (A) (A) (A) (A) (A)
 The electronic state is 1-A.
 Alpha  occ. eigenvalues --  -19.48305 -19.38920  -1.34933  -1.08133  -0.85431
 Alpha  occ. eigenvalues --   -0.84699  -0.63356  -0.56712  -0.50546  -0.47410
 Alpha virt. eigenvalues --   -0.38199  -0.26164  -0.17293  -0.09141   0.04513
 Alpha virt. eigenvalues --    0.41859   0.46150   0.50956   0.55164   0.55861
 Alpha virt. eigenvalues --    0.58153   0.65430   0.73628   0.74780   0.76397
 Alpha virt. eigenvalues --    0.84169   0.95323   1.17381   1.20351   1.21684
 Alpha virt. eigenvalues --    1.44452   1.47817   1.48709   1.59780   1.60461
 Alpha virt. eigenvalues --    1.76182   1.76255   1.80694   1.82982   1.91495
 Alpha virt. eigenvalues --    1.92990   1.94014   2.01764   2.14778   2.30235
 Alpha virt. eigenvalues --    2.37248   2.49799   2.54364   2.65506   2.79405
 Alpha virt. eigenvalues --    3.03359   3.16528   3.28106   3.57987   4.04990
          Condensed to atoms (all electrons):
              1          2          3          4          5          6
     1  O    7.682516   0.309705   0.310793  -0.037929   0.000872   0.000384
     2  H    0.309705   0.294320  -0.015592   0.001745  -0.000040  -0.000028
     3  H    0.310793  -0.015592   0.290673   0.001833  -0.000055  -0.000038
     4  O   -0.037929   0.001745   0.001833   8.172253   0.185073   0.098181
     5  H    0.000872  -0.000040  -0.000055   0.185073   0.450701  -0.002796
     6  H    0.000384  -0.000028  -0.000038   0.098181  -0.002796   0.605761
     7  H    0.194830  -0.005724  -0.005605   0.103342  -0.005203  -0.002415
              7
     1  O    0.194830
     2  H   -0.005724
     3  H   -0.005605
     4  O    0.103342
     5  H   -0.005203
     6  H   -0.002415
     7  H    0.241111
 Mulliken atomic charges:
              1
     1  O   -0.461170
     2  H    0.415614
     3  H    0.417991
     4  O   -0.524497
     5  H    0.371449
     6  H    0.300951
     7  H    0.479663
 Sum of Mulliken atomic charges =   1.00000
 Mulliken charges with hydrogens summed into heavy atoms:
              1
     1  O    0.852098
     4  O    0.147902
 Sum of Mulliken charges with hydrogens summed into heavy atoms =   1.00000
 Electronic spatial extent (au):  <R**2>=            177.0918
 Charge=              1.0000 electrons
 Dipole moment (field-independent basis, Debye):
    X=             -0.8410    Y=              1.1998    Z=              0.6981  Tot=              1.6230
 Quadrupole moment (field-independent basis, Debye-Ang):
   XX=             12.0201   YY=             -5.1430   ZZ=            -10.7904
   XY=              1.8613   XZ=              1.6198   YZ=             -0.1356
 Traceless Quadrupole moment (field-independent basis, Debye-Ang):
   XX=             13.3245   YY=             -3.8386   ZZ=             -9.4859
   XY=              1.8613   XZ=              1.6198   YZ=             -0.1356
 Octapole moment (field-independent basis, Debye-Ang**2):
  XXX=              6.9178  YYY=              8.0534  ZZZ=              0.1912  XYY=             18.6450
  XXY=              4.9660  XXZ=              4.1453  XZZ=             -8.5750  YZZ=             -0.1986
  YYZ=              1.2524  XYZ=             -0.9829
 Hexadecapole moment (field-independent basis, Debye-Ang**3):
 XXXX=            -30.5407 YYYY=             -5.2283 ZZZZ=            -10.3874 XXXY=              4.1456
 XXXZ=              8.3114 YYYX=             17.8158 YYYZ=              0.2507 ZZZX=             -0.1104
 ZZZY=              0.0077 XXYY=             12.2118 XXZZ=            -20.1574 YYZZ=             -7.3961
 XXYZ=             -1.3311 YYXZ=              2.9378 ZZXY=             -1.4115
 N-N= 4.065315094355D+01 E-N=-4.370065380212D+02  KE= 1.510382560230D+02
 Calling FoFJK, ICntrl=      2127 FMM=F ISym2X=0 I1Cent= 0 IOpClX= 0 NMat=1 NMatS=1 NMatT=0.
 ***** Axes restored to original set *****
 -------------------------------------------------------------------
 Center     Atomic                   Forces (Hartrees/Bohr)
 Number     Number              X              Y              Z
 -------------------------------------------------------------------
      1        8           0.012506628    0.007485323    0.001416436
      2        1           0.011739942   -0.009934925   -0.000576638
      3        1          -0.016196499    0.005910675   -0.000778831
      4        8          -0.060157798   -0.060621877   -0.020380761
      5        1           0.060504999    0.059326578    0.069689368
      6        1           0.013939674    0.013891644   -0.047775072
      7        1          -0.022336946   -0.016057418   -0.001594502
 -------------------------------------------------------------------
 Cartesian Forces:  Max     0.069689368 RMS     0.033753101

 GradGradGradGradGradGradGradGradGradGradGradGradGradGradGradGradGradGrad
 Berny optimization.
 Internal  Forces:  Max     0.109652140 RMS     0.029596588
 Search for a local minimum.
 Step number   1 out of a maximum of   28
 All quantities printed in internal units (Hartrees-Bohrs-Radians)
 Mixed Optimization -- RFO/linear search
 Second derivative matrix not updated -- first step.
 The second derivative matrix:
                          R1        R2        R3        R4        R5
           R1           0.55473
           R2           0.00000   0.55473
           R3           0.00000   0.00000   0.40106
           R4           0.00000   0.00000   0.00000   0.10887
           R5           0.00000   0.00000   0.00000   0.00000   0.02835
           R6           0.00000   0.00000   0.00000   0.00000   0.00000
           A1           0.00000   0.00000   0.00000   0.00000   0.00000
           A2           0.00000   0.00000   0.00000   0.00000   0.00000
           A3           0.00000   0.00000   0.00000   0.00000   0.00000
           A4           0.00000   0.00000   0.00000   0.00000   0.00000
           A5           0.00000   0.00000   0.00000   0.00000   0.00000
           A6           0.00000   0.00000   0.00000   0.00000   0.00000
           A7           0.00000   0.00000   0.00000   0.00000   0.00000
           A8           0.00000   0.00000   0.00000   0.00000   0.00000
           D1           0.00000   0.00000   0.00000   0.00000   0.00000
           D2           0.00000   0.00000   0.00000   0.00000   0.00000
           D3           0.00000   0.00000   0.00000   0.00000   0.00000
           D4           0.00000   0.00000   0.00000   0.00000   0.00000
                          R6        A1        A2        A3        A4
           R6           0.12236
           A1           0.00000   0.16000
           A2           0.00000   0.00000   0.16000
           A3           0.00000   0.00000   0.00000   0.16000
           A4           0.00000   0.00000   0.00000   0.00000   0.16000
           A5           0.00000   0.00000   0.00000   0.00000   0.00000
           A6           0.00000   0.00000   0.00000   0.00000   0.00000
           A7           0.00000   0.00000   0.00000   0.00000   0.00000
           A8           0.00000   0.00000   0.00000   0.00000   0.00000
           D1           0.00000   0.00000   0.00000   0.00000   0.00000
           D2           0.00000   0.00000   0.00000   0.00000   0.00000
           D3           0.00000   0.00000   0.00000   0.00000   0.00000
           D4           0.00000   0.00000   0.00000   0.00000   0.00000
                          A5        A6        A7        A8        D1
           A5           0.16000
           A6           0.00000   0.16000
           A7           0.00000   0.00000   0.00230
           A8           0.00000   0.00000   0.00000   0.00230
           D1           0.00000   0.00000   0.00000   0.00000   0.00230
           D2           0.00000   0.00000   0.00000   0.00000   0.00000
           D3           0.00000   0.00000   0.00000   0.00000   0.00000
           D4           0.00000   0.00000   0.00000   0.00000   0.00000
                          D2        D3        D4
           D2           0.00230
           D3           0.00000   0.00230
           D4           0.00000   0.00000   0.00230
 ITU=  0
     Eigenvalues ---    0.00230   0.00230   0.00230   0.00241   0.00660
     Eigenvalues ---    0.02835   0.10887   0.12236   0.16000   0.16000
     Eigenvalues ---    0.16000   0.16000   0.40106   0.55473   0.55473
 RFO step:  Lambda=-8.81993643D-02 EMin= 2.30000000D-03
 Linear search not attempted -- first point.
 Maximum step size (   0.300) exceeded in Quadratic search.
    -- Step size scaled by   0.414
 Iteration  1 RMS(Cart)=  0.06768313 RMS(Int)=  0.00728942
 Iteration  2 RMS(Cart)=  0.00655233 RMS(Int)=  0.00006331
 Iteration  3 RMS(Cart)=  0.00000115 RMS(Int)=  0.00006330
 Iteration  4 RMS(Cart)=  0.00000000 RMS(Int)=  0.00006330
 Variable       Old X    -DE/DX   Delta X   Delta X   Delta X     New X
                                 (Linear)    (Quad)   (Total)
    R1        1.81414   0.01174   0.00000   0.00757   0.00757   1.82170
    R2        1.81414   0.01098   0.00000   0.00708   0.00708   1.82121
    R3        1.98110   0.00726   0.00000   0.00615   0.00615   1.98725
    R4        2.86803  -0.10965   0.00000  -0.23061  -0.23061   2.63743
    R5        4.29182  -0.05162   0.00000  -0.18354  -0.18354   4.10827
    R6        2.77195  -0.01831   0.00000  -0.03604  -0.03604   2.73592
    A1        1.91114   0.01407   0.00000   0.02354   0.02353   1.93466
    A2        2.14590  -0.00395   0.00000  -0.00656  -0.00657   2.13933
    A3        2.22529  -0.01006   0.00000  -0.01675  -0.01676   2.20853
    A4        1.82937  -0.00190   0.00000  -0.00535  -0.00551   1.82387
    A5        2.39263  -0.00492   0.00000  -0.01022  -0.01036   2.38227
    A6        2.00582   0.00438   0.00000   0.00523   0.00508   2.01090
    A7        3.08173   0.00280   0.00000   0.01254   0.01253   3.09426
    A8        3.14526   0.00495   0.00000   0.02205   0.02203   3.16729
    D1       -1.87546  -0.00273   0.00000  -0.01176  -0.01174  -1.88720
    D2        1.69364   0.00347   0.00000   0.01514   0.01511   1.70875
    D3        1.26613  -0.00349   0.00000  -0.01522  -0.01520   1.25093
    D4       -1.44795   0.00272   0.00000   0.01168   0.01166  -1.43630
         Item               Value     Threshold  Converged?
 Maximum Force            0.109652     0.000450     NO 
 RMS     Force            0.029597     0.000300     NO 
 Maximum Displacement     0.164063     0.001800     NO 
 RMS     Displacement     0.073026     0.001200     NO 
 Predicted change in Energy=-3.298000D-02
 GradGradGradGradGradGradGradGradGradGradGradGradGradGradGradGradGradGrad

                          Input orientation:                          
 ---------------------------------------------------------------------
 Center     Atomic      Atomic             Coordinates (Angstroms)
 Number     Number       Type             X           Y           Z
 ---------------------------------------------------------------------
      1          8           0        0.892837    1.356912   -0.002212
      2          1           0        1.856725    1.343894   -0.009660
      3          1           0        0.562029    2.262102   -0.002513
      4          8           0       -0.468497   -0.738264    0.008762
      5          1           0       -1.282880   -1.444785   -0.877519
      6          1           0       -1.165422   -1.332869    1.980319
      7          1           0        0.314532    0.478960   -0.027479
 ---------------------------------------------------------------------
                    Distance matrix (angstroms):
                    1          2          3          4          5
     1  O    0.000000
     2  H    0.964005   0.000000
     3  H    0.963745   1.587260   0.000000
     4  O    2.498623   3.121279   3.172430   0.000000
     5  H    3.653685   4.288011   4.232061   1.395666   0.000000
     6  H    3.924510   4.500939   4.454158   2.174005   2.862440
     7  H    1.051605   1.768273   1.800409   1.447786   2.641040
                    6          7
     6  H    0.000000
     7  H    3.082895   0.000000
 Stoichiometry    H5O2(1+)
 Framework group  C1[X(H5O2)]
 Deg. of freedom    15
 Full point group                 C1      NOp   1
 Largest Abelian subgroup         C1      NOp   1
 Largest concise Abelian subgroup C1      NOp   1
                         Standard orientation:                         
 ---------------------------------------------------------------------
 Center     Atomic      Atomic             Coordinates (Angstroms)
 Number     Number       Type             X           Y           Z
 ---------------------------------------------------------------------
      1          8           0       -1.280076    0.026055    0.014293
      2          1           0       -1.819197    0.011903   -0.784739
      3          1           0       -1.833192    0.100729    0.799972
      4          8           0        1.213016   -0.124017   -0.057007
      5          1           0        2.200196   -1.059595    0.256129
      6          1           0        2.221454    1.797215    0.077959
      7          1           0       -0.232785   -0.066552   -0.007610
 ---------------------------------------------------------------------
 Rotational constants (GHZ):     84.3739812      7.4550351      7.1164326
 Standard basis: 6-31G(d,p) (6D, 7F)
 There are    55 symmetry adapted basis functions of A   symmetry.
 Integral buffers will be    131072 words long.
 Raffenetti 2 integral format.
 Two-electron integral symmetry is turned on.
    55 basis functions,    91 primitive gaussians,    55 cartesian basis functions
    10 alpha electrons       10 beta electrons
       nuclear repulsion energy        41.1652677992 Hartrees.
 NAtoms=    7 NActive=    7 NUniq=    7 SFac= 1.00D+00 NAtFMM=   60 NAOKFM=F Big=F
 One-electron integrals computed using PRISM.
 NBasis=    55 RedAO= T  NBF=    55
 NBsUse=    55 1.00D-06 NBFU=    55
 Initial guess read from the read-write file.
 B after Tr=     0.000000    0.000000    0.000000
         Rot=    1.000000    0.000000    0.000000    0.000000 Ang=   0.00 deg.
 Initial guess orbital symmetries:
       Occupied  (A) (A) (A) (A) (A) (A) (A) (A) (A) (A)
       Virtual   (A) (A) (A) (A) (A) (A) (A) (A) (A) (A) (A) (A)
                 (A) (A) (A) (A) (A) (A) (A) (A) (A) (A) (A) (A)
                 (A) (A) (A) (A) (A) (A) (A) (A) (A) (A) (A) (A)
                 (A) (A) (A) (A) (A) (A) (A) (A) (A)
 Harris functional with IExCor=  402 diagonalized for initial guess.
 ExpMin= 1.61D-01 ExpMax= 5.48D+03 ExpMxC= 8.25D+02 IAcc=1 IRadAn=         1 AccDes= 0.00D+00
 HarFok:  IExCor=  402 AccDes= 0.00D+00 IRadAn=         1 IDoV= 1
 ScaDFX=  1.000000  1.000000  1.000000  1.000000
 FoFCou: FMM=F IPFlag=           0 FMFlag=      100000 FMFlg1=           0
         NFxFlg=           0 DoJE=T BraDBF=F KetDBF=T FulRan=T
         Omega=  0.000000  0.000000  1.000000  0.000000  0.000000 ICntrl=     500 IOpCl=  0
         NMat0=    1 NMatS0=    1 NMatT0=    0 NMatD0=    1 NMtDS0=    0 NMtDT0=    0
         I1Cent=           4 NGrid=           0.
 Petite list used in FoFCou.
 Requested convergence on RMS density matrix=1.00D-08 within 128 cycles.
 Requested convergence on MAX density matrix=1.00D-06.
 Requested convergence on             energy=1.00D-06.
 No special actions if energy rises.
 Keep R1 ints in memory in canonical form, NReq=2145012.
 Integral accuracy reduced to 1.0D-05 until final iterations.
 Rare condition: small coef for last iteration:  0.000D+00
 Initial convergence to 1.0D-05 achieved.  Increase integral accuracy.
 SCF Done:  E(RB3LYP) =  -152.906695160     A.U. after   15 cycles
             Convg  =    0.2501D-08             -V/T =  2.0123
 Calling FoFJK, ICntrl=      2127 FMM=F ISym2X=0 I1Cent= 0 IOpClX= 0 NMat=1 NMatS=1 NMatT=0.
 ***** Axes restored to original set *****
 -------------------------------------------------------------------
 Center     Atomic                   Forces (Hartrees/Bohr)
 Number     Number              X              Y              Z
 -------------------------------------------------------------------
      1        8           0.012744203    0.008943982    0.001150034
      2        1           0.006976193   -0.007691449   -0.000565622
      3        1          -0.012071189    0.002630123   -0.000611430
      4        8          -0.067828084   -0.065333635   -0.020076555
      5        1           0.065200386    0.061728914    0.074880028
      6        1           0.016211942    0.015582300   -0.053416396
      7        1          -0.021233452   -0.015860235   -0.001360059
 -------------------------------------------------------------------
 Cartesian Forces:  Max     0.074880028 RMS     0.036193168

 GradGradGradGradGradGradGradGradGradGradGradGradGradGradGradGradGradGrad
 Berny optimization.
 Using GEDIIS/GDIIS optimizer.
 Internal  Forces:  Max     0.116844343 RMS     0.031411922
 Search for a local minimum.
 Step number   2 out of a maximum of   28
 All quantities printed in internal units (Hartrees-Bohrs-Radians)
 Mixed Optimization -- RFO/linear search
 Update second derivatives using D2CorX and points    1    2
 DE= -3.79D-02 DEPred=-3.30D-02 R= 1.15D+00
 SS=  1.41D+00  RLast= 3.01D-01 DXNew= 5.0454D-01 9.0363D-01
 Trust test= 1.15D+00 RLast= 3.01D-01 DXMaxT set to 5.05D-01
 The second derivative matrix:
                          R1        R2        R3        R4        R5
           R1           0.54389
           R2          -0.01016   0.54522
           R3          -0.00111  -0.00104   0.40019
           R4           0.00181   0.00166   0.00918   0.00071
           R5          -0.00823  -0.00772   0.00225  -0.03572   0.00935
           R6           0.00423   0.00396   0.00146  -0.01295  -0.00099
           A1          -0.00781  -0.00731  -0.00107   0.00458  -0.00480
           A2           0.00255   0.00239   0.00029  -0.00070   0.00184
           A3           0.00520   0.00487   0.00078  -0.00382   0.00293
           A4          -0.00053  -0.00049   0.00035  -0.00471  -0.00205
           A5           0.00198   0.00185   0.00053  -0.00427   0.00015
           A6          -0.00070  -0.00065  -0.00027   0.00251   0.00029
           A7          -0.00030  -0.00029   0.00000  -0.00034  -0.00037
           A8          -0.00054  -0.00050   0.00000  -0.00060  -0.00065
           D1          -0.00003  -0.00003   0.00001  -0.00017  -0.00008
           D2           0.00002   0.00002  -0.00001   0.00019   0.00008
           D3          -0.00002  -0.00002   0.00001  -0.00018  -0.00008
           D4           0.00003   0.00003  -0.00001   0.00017   0.00009
                          R6        A1        A2        A3        A4
           R6           0.11931
           A1           0.00342   0.15428
           A2          -0.00103   0.00185   0.15940
           A3          -0.00237   0.00383  -0.00123   0.15743
           A4          -0.00034  -0.00023   0.00011   0.00012   0.15976
           A5          -0.00122   0.00155  -0.00048  -0.00106  -0.00008
           A6           0.00054  -0.00057   0.00017   0.00040   0.00007
           A7           0.00007  -0.00021   0.00007   0.00014  -0.00003
           A8           0.00013  -0.00037   0.00012   0.00024  -0.00006
           D1          -0.00001  -0.00002   0.00001   0.00001  -0.00001
           D2           0.00001   0.00001   0.00000  -0.00001   0.00001
           D3          -0.00001  -0.00001   0.00000   0.00000  -0.00001
           D4           0.00001   0.00002  -0.00001  -0.00001   0.00001
                          A5        A6        A7        A8        D1
           A5           0.15949
           A6           0.00021   0.15990
           A7           0.00004  -0.00001   0.00229
           A8           0.00007  -0.00002  -0.00002   0.00227
           D1           0.00000   0.00000   0.00000   0.00000   0.00230
           D2           0.00000   0.00000   0.00000   0.00000   0.00000
           D3           0.00000   0.00000   0.00000   0.00000   0.00000
           D4           0.00000   0.00000   0.00000   0.00000   0.00000
                          D2        D3        D4
           D2           0.00230
           D3           0.00000   0.00230
           D4           0.00000   0.00000   0.00230
 ITU=  1  0
 Use linear search instead of GDIIS.
     Eigenvalues ---   -0.03206   0.00229   0.00230   0.00230   0.00238
     Eigenvalues ---    0.00744   0.03914   0.12030   0.15141   0.15992
     Eigenvalues ---    0.16000   0.16000   0.40041   0.53520   0.55473
 RFO step:  Lambda=-1.47736063D-01 EMin=-3.20617403D-02
 Skip linear search -- no minimum in search direction.
 Maximum step size (   0.505) exceeded in Quadratic search.
    -- Step size scaled by   0.495
 Iteration  1 RMS(Cart)=  0.07162362 RMS(Int)=  0.05579461
 Iteration  2 RMS(Cart)=  0.04530232 RMS(Int)=  0.00708045
 Iteration  3 RMS(Cart)=  0.00643283 RMS(Int)=  0.00003285
 Iteration  4 RMS(Cart)=  0.00000253 RMS(Int)=  0.00003275
 Iteration  5 RMS(Cart)=  0.00000000 RMS(Int)=  0.00003275
 Variable       Old X    -DE/DX   Delta X   Delta X   Delta X     New X
                                 (Linear)    (Quad)   (Total)
    R1        1.82170   0.00708   0.00000   0.00405   0.00405   1.82575
    R2        1.82121   0.00661   0.00000   0.00375   0.00375   1.82497
    R3        1.98725   0.00744   0.00000   0.01502   0.01502   2.00226
    R4        2.63743  -0.11684   0.00000  -0.42981  -0.42981   2.20762
    R5        4.10827  -0.05789   0.00000  -0.25557  -0.25557   3.85270
    R6        2.73592  -0.01739   0.00000  -0.05330  -0.05330   2.68262
    A1        1.93466   0.01096   0.00000   0.02155   0.02155   1.95621
    A2        2.13933  -0.00288   0.00000  -0.00463  -0.00463   2.13470
    A3        2.20853  -0.00804   0.00000  -0.01681  -0.01681   2.19171
    A4        1.82387  -0.00247   0.00000  -0.00981  -0.00989   1.81397
    A5        2.38227  -0.00436   0.00000  -0.01119  -0.01127   2.37100
    A6        2.01090   0.00426   0.00000   0.01252   0.01244   2.02334
    A7        3.09426   0.00264   0.00000   0.00788   0.00788   3.10214
    A8        3.16729   0.00467   0.00000   0.01399   0.01398   3.18127
    D1       -1.88720  -0.00276   0.00000  -0.00986  -0.00985  -1.89706
    D2        1.70875   0.00349   0.00000   0.01233   0.01232   1.72107
    D3        1.25093  -0.00351   0.00000  -0.01238  -0.01237   1.23856
    D4       -1.43630   0.00274   0.00000   0.00981   0.00980  -1.42650
         Item               Value     Threshold  Converged?
 Maximum Force            0.116844     0.000450     NO 
 RMS     Force            0.031412     0.000300     NO 
 Maximum Displacement     0.276283     0.001800     NO 
 RMS     Displacement     0.119949     0.001200     NO 
 Predicted change in Energy=-7.055629D-02
 GradGradGradGradGradGradGradGradGradGradGradGradGradGradGradGradGradGrad

                          Input orientation:                          
 ---------------------------------------------------------------------
 Center     Atomic      Atomic             Coordinates (Angstroms)
 Number     Number       Type             X           Y           Z
 ---------------------------------------------------------------------
      1          8           0        0.871683    1.328524   -0.007882
      2          1           0        1.837389    1.304043   -0.023650
      3          1           0        0.531392    2.232313   -0.006344
      4          8           0       -0.482805   -0.746982    0.012736
      5          1           0       -1.175805   -1.322201   -0.731316
      6          1           0       -1.155039   -1.317794    1.850895
      7          1           0        0.282511    0.448046   -0.024739
 ---------------------------------------------------------------------
                    Distance matrix (angstroms):
                    1          2          3          4          5
     1  O    0.000000
     2  H    0.966145   0.000000
     3  H    0.965731   1.602378   0.000000
     4  O    2.478465   3.096987   3.147246   0.000000
     5  H    3.426647   4.059223   4.009324   1.168221   0.000000
     6  H    3.816498   4.398020   4.347027   2.038763   2.582299
     7  H    1.059551   1.774930   1.801635   1.419579   2.399940
                    6          7
     6  H    0.000000
     7  H    2.950042   0.000000
 Stoichiometry    H5O2(1+)
 Framework group  C1[X(H5O2)]
 Deg. of freedom    15
 Full point group                 C1      NOp   1
 Largest Abelian subgroup         C1      NOp   1
 Largest concise Abelian subgroup C1      NOp   1
                         Standard orientation:                         
 ---------------------------------------------------------------------
 Center     Atomic      Atomic             Coordinates (Angstroms)
 Number     Number       Type             X           Y           Z
 ---------------------------------------------------------------------
      1          8           0       -1.261762    0.030388    0.010987
      2          1           0       -1.792382   -0.010621   -0.795362
      3          1           0       -1.808393    0.132870    0.800498
      4          8           0        1.210765   -0.130482   -0.048319
      5          1           0        2.023396   -0.913148    0.254675
      6          1           0        2.191749    1.654620    0.039057
      7          1           0       -0.206392   -0.062973   -0.000206
 ---------------------------------------------------------------------
 Rotational constants (GHZ):     96.5766038      7.6712868      7.3940646
 Standard basis: 6-31G(d,p) (6D, 7F)
 There are    55 symmetry adapted basis functions of A   symmetry.
 Integral buffers will be    131072 words long.
 Raffenetti 2 integral format.
 Two-electron integral symmetry is turned on.
    55 basis functions,    91 primitive gaussians,    55 cartesian basis functions
    10 alpha electrons       10 beta electrons
       nuclear repulsion energy        42.1960318439 Hartrees.
 NAtoms=    7 NActive=    7 NUniq=    7 SFac= 1.00D+00 NAtFMM=   60 NAOKFM=F Big=F
 One-electron integrals computed using PRISM.
 NBasis=    55 RedAO= T  NBF=    55
 NBsUse=    55 1.00D-06 NBFU=    55
 Initial guess read from the read-write file.
 B after Tr=     0.000000    0.000000    0.000000
         Rot=    1.000000    0.000000    0.000000    0.000000 Ang=   0.00 deg.
 Initial guess orbital symmetries:
       Occupied  (A) (A) (A) (A) (A) (A) (A) (A) (A) (A)
       Virtual   (A) (A) (A) (A) (A) (A) (A) (A) (A) (A) (A) (A)
                 (A) (A) (A) (A) (A) (A) (A) (A) (A) (A) (A) (A)
                 (A) (A) (A) (A) (A) (A) (A) (A) (A) (A) (A) (A)
                 (A) (A) (A) (A) (A) (A) (A) (A) (A)
 Harris functional with IExCor=  402 diagonalized for initial guess.
 ExpMin= 1.61D-01 ExpMax= 5.48D+03 ExpMxC= 8.25D+02 IAcc=1 IRadAn=         1 AccDes= 0.00D+00
 HarFok:  IExCor=  402 AccDes= 0.00D+00 IRadAn=         1 IDoV= 1
 ScaDFX=  1.000000  1.000000  1.000000  1.000000
 FoFCou: FMM=F IPFlag=           0 FMFlag=      100000 FMFlg1=           0
         NFxFlg=           0 DoJE=T BraDBF=F KetDBF=T FulRan=T
         Omega=  0.000000  0.000000  1.000000  0.000000  0.000000 ICntrl=     500 IOpCl=  0
         NMat0=    1 NMatS0=    1 NMatT0=    0 NMatD0=    1 NMtDS0=    0 NMtDT0=    0
         I1Cent=           4 NGrid=           0.
 Petite list used in FoFCou.
 Requested convergence on RMS density matrix=1.00D-08 within 128 cycles.
 Requested convergence on MAX density matrix=1.00D-06.
 Requested convergence on             energy=1.00D-06.
 No special actions if energy rises.
 Keep R1 ints in memory in canonical form, NReq=2144991.
 Integral accuracy reduced to 1.0D-05 until final iterations.
 Initial convergence to 1.0D-05 achieved.  Increase integral accuracy.
 SCF Done:  E(RB3LYP) =  -152.973704220     A.U. after   14 cycles
             Convg  =    0.8517D-08             -V/T =  2.0120
 Calling FoFJK, ICntrl=      2127 FMM=F ISym2X=0 I1Cent= 0 IOpClX= 0 NMat=1 NMatS=1 NMatT=0.
 ***** Axes restored to original set *****
 -------------------------------------------------------------------
 Center     Atomic                   Forces (Hartrees/Bohr)
 Number     Number              X              Y              Z
 -------------------------------------------------------------------
      1        8           0.010822826    0.007895527    0.000891673
      2        1           0.004191249   -0.005471241   -0.000577929
      3        1          -0.008491275    0.001130784   -0.000528077
      4        8          -0.065228277   -0.059963133   -0.004408672
      5        1           0.057894664    0.053070899    0.067244502
      6        1           0.019868149    0.018485987   -0.062000286
      7        1          -0.019057336   -0.015148823   -0.000621211
 -------------------------------------------------------------------
 Cartesian Forces:  Max     0.067244502 RMS     0.033830956

 GradGradGradGradGradGradGradGradGradGradGradGradGradGradGradGradGradGrad
 Berny optimization.
 Using GEDIIS/GDIIS optimizer.
 Internal  Forces:  Max     0.103303306 RMS     0.029611820
 Search for a local minimum.
 Step number   3 out of a maximum of   28
 All quantities printed in internal units (Hartrees-Bohrs-Radians)
 Mixed Optimization -- RFO/linear search
 Update second derivatives using D2CorX and points    2    3
 DE= -6.70D-02 DEPred=-7.06D-02 R= 9.50D-01
 SS=  1.41D+00  RLast= 5.05D-01 DXNew= 8.4853D-01 1.5151D+00
 Trust test= 9.50D-01 RLast= 5.05D-01 DXMaxT set to 8.49D-01
 The second derivative matrix:
                          R1        R2        R3        R4        R5
           R1           0.54718
           R2          -0.00709   0.54809
           R3           0.00009   0.00008   0.40065
           R4          -0.00468  -0.00440   0.00773   0.06555
           R5           0.00436   0.00405   0.00693  -0.05545   0.05810
           R6           0.00342   0.00321   0.00118  -0.01009  -0.00397
           A1          -0.00453  -0.00425   0.00008  -0.00422   0.00751
           A2           0.00152   0.00143  -0.00008   0.00188  -0.00206
           A3           0.00297   0.00278   0.00000   0.00235  -0.00545
           A4           0.00050   0.00047   0.00072  -0.00655   0.00191
           A5           0.00094   0.00089   0.00022   0.00132  -0.00347
           A6          -0.00016  -0.00015  -0.00006   0.00243   0.00244
           A7          -0.00016  -0.00015   0.00006  -0.00024   0.00022
           A8           0.00016   0.00015   0.00025  -0.00261   0.00196
           D1          -0.00032  -0.00030  -0.00007   0.00148  -0.00107
           D2           0.00028   0.00026   0.00006  -0.00132   0.00096
           D3          -0.00028  -0.00026  -0.00006   0.00132  -0.00097
           D4           0.00032   0.00030   0.00007  -0.00147   0.00107
                          R6        A1        A2        A3        A4
           R6           0.11954
           A1           0.00256   0.15764
           A2          -0.00076   0.00079   0.15973
           A3          -0.00177   0.00153  -0.00051   0.15900
           A4          -0.00059   0.00078  -0.00021  -0.00057   0.16008
           A5          -0.00088   0.00035  -0.00011  -0.00023  -0.00039
           A6           0.00044  -0.00009   0.00001   0.00007   0.00024
           A7           0.00005  -0.00008   0.00003   0.00005   0.00001
           A8          -0.00006   0.00036  -0.00010  -0.00026   0.00016
           D1           0.00009  -0.00035   0.00011   0.00024  -0.00009
           D2          -0.00007   0.00031  -0.00010  -0.00021   0.00009
           D3           0.00007  -0.00031   0.00010   0.00021  -0.00009
           D4          -0.00009   0.00035  -0.00011  -0.00024   0.00009
                          A5        A6        A7        A8        D1
           A5           0.16006
           A6           0.00011   0.16001
           A7           0.00002   0.00002   0.00230
           A8          -0.00019   0.00008   0.00001   0.00242
           D1           0.00016  -0.00002  -0.00001  -0.00008   0.00235
           D2          -0.00015   0.00002   0.00000   0.00007  -0.00004
           D3           0.00015  -0.00002   0.00000  -0.00007   0.00004
           D4          -0.00016   0.00002   0.00001   0.00008  -0.00005
                          D2        D3        D4
           D2           0.00234
           D3          -0.00004   0.00234
           D4           0.00004  -0.00004   0.00235
 ITU=  1  1  0
 Use linear search instead of GDIIS.
     Eigenvalues ---    0.00229   0.00230   0.00230   0.00237   0.00486
     Eigenvalues ---    0.00826   0.11219   0.12160   0.15792   0.15995
     Eigenvalues ---    0.16000   0.16265   0.40093   0.54092   0.55473
 RFO step:  Lambda=-1.21221625D-01 EMin= 2.29092761D-03
 Skip linear search -- no minimum in search direction.
 Maximum step size (   0.849) exceeded in Quadratic search.
    -- Step size scaled by   0.873
 Iteration  1 RMS(Cart)=  0.08002662 RMS(Int)=  0.13207793
 Iteration  2 RMS(Cart)=  0.06231987 RMS(Int)=  0.06671977
 Iteration  3 RMS(Cart)=  0.05349157 RMS(Int)=  0.01124684
 Iteration  4 RMS(Cart)=  0.01018689 RMS(Int)=  0.00005475
 Iteration  5 RMS(Cart)=  0.00000954 RMS(Int)=  0.00005351
 Iteration  6 RMS(Cart)=  0.00000000 RMS(Int)=  0.00005351
 Variable       Old X    -DE/DX   Delta X   Delta X   Delta X     New X
                                 (Linear)    (Quad)   (Total)
    R1        1.82575   0.00434   0.00000   0.00551   0.00551   1.83126
    R2        1.82497   0.00405   0.00000   0.00511   0.00511   1.83007
    R3        2.00226   0.00658   0.00000   0.02795   0.02795   2.03021
    R4        2.20762  -0.10330   0.00000  -0.64731  -0.64731   1.56031
    R5        3.85270  -0.06761   0.00000  -0.53591  -0.53591   3.31679
    R6        2.68262  -0.01652   0.00000  -0.09679  -0.09679   2.58583
    A1        1.95621   0.00786   0.00000   0.03047   0.03046   1.98668
    A2        2.13470  -0.00193   0.00000  -0.00600  -0.00602   2.12868
    A3        2.19171  -0.00590   0.00000  -0.02425  -0.02426   2.16745
    A4        1.81397  -0.00330   0.00000  -0.02236  -0.02250   1.79147
    A5        2.37100  -0.00294   0.00000  -0.01326  -0.01339   2.35761
    A6        2.02334   0.00396   0.00000   0.02256   0.02244   2.04578
    A7        3.10214   0.00258   0.00000   0.01801   0.01800   3.12014
    A8        3.18127   0.00399   0.00000   0.02267   0.02265   3.20393
    D1       -1.89706  -0.00235   0.00000  -0.01320  -0.01318  -1.91023
    D2        1.72107   0.00312   0.00000   0.01904   0.01902   1.74009
    D3        1.23856  -0.00314   0.00000  -0.01916  -0.01914   1.21943
    D4       -1.42650   0.00234   0.00000   0.01309   0.01306  -1.41343
         Item               Value     Threshold  Converged?
 Maximum Force            0.103303     0.000450     NO 
 RMS     Force            0.029612     0.000300     NO 
 Maximum Displacement     0.473712     0.001800     NO 
 RMS     Displacement     0.200795     0.001200     NO 
 Predicted change in Energy=-1.033400D-01
 GradGradGradGradGradGradGradGradGradGradGradGradGradGradGradGradGradGrad

                          Input orientation:                          
 ---------------------------------------------------------------------
 Center     Atomic      Atomic             Coordinates (Angstroms)
 Number     Number       Type             X           Y           Z
 ---------------------------------------------------------------------
      1          8           0        0.835650    1.280643   -0.011857
      2          1           0        1.803205    1.237108   -0.043861
      3          1           0        0.484467    2.183156   -0.010027
      4          8           0       -0.510672   -0.756385    0.033498
      5          1           0       -1.015200   -1.146671   -0.490788
      6          1           0       -1.114469   -1.267704    1.600217
      7          1           0        0.226343    0.395804   -0.007484
 ---------------------------------------------------------------------
                    Distance matrix (angstroms):
                    1          2          3          4          5
     1  O    0.000000
     2  H    0.969063   0.000000
     3  H    0.968433   1.623336   0.000000
     4  O    2.442155   3.055163   3.103723   0.000000
     5  H    3.089801   3.718273   3.683461   0.825680   0.000000
     6  H    3.591075   4.182093   4.130124   1.755172   2.096857
     7  H    1.074343   1.787627   1.805896   1.368360   2.038196
                    6          7
     6  H    0.000000
     7  H    2.673900   0.000000
 Stoichiometry    H5O2(1+)
 Framework group  C1[X(H5O2)]
 Deg. of freedom    15
 Full point group                 C1      NOp   1
 Largest Abelian subgroup         C1      NOp   1
 Largest concise Abelian subgroup C1      NOp   1
                         Standard orientation:                         
 ---------------------------------------------------------------------
 Center     Atomic      Atomic             Coordinates (Angstroms)
 Number     Number       Type             X           Y           Z
 ---------------------------------------------------------------------
      1          8           0       -1.230254    0.030316    0.004647
      2          1           0       -1.747759   -0.093924   -0.805190
      3          1           0       -1.768871    0.206299    0.790004
      4          8           0        1.206528   -0.128396   -0.027358
      5          1           0        1.770796   -0.661034    0.254861
      6          1           0        2.094707    1.384825   -0.071255
      7          1           0       -0.159067   -0.051524    0.013266
 ---------------------------------------------------------------------
 Rotational constants (GHZ):    125.9413028      8.0556818      7.8937117
 Standard basis: 6-31G(d,p) (6D, 7F)
 There are    55 symmetry adapted basis functions of A   symmetry.
 Integral buffers will be    131072 words long.
 Raffenetti 2 integral format.
 Two-electron integral symmetry is turned on.
    55 basis functions,    91 primitive gaussians,    55 cartesian basis functions
    10 alpha electrons       10 beta electrons
       nuclear repulsion energy        44.6454141891 Hartrees.
 NAtoms=    7 NActive=    7 NUniq=    7 SFac= 1.00D+00 NAtFMM=   60 NAOKFM=F Big=F
 One-electron integrals computed using PRISM.
 NBasis=    55 RedAO= T  NBF=    55
 NBsUse=    55 1.00D-06 NBFU=    55
 Initial guess read from the read-write file.
 B after Tr=     0.000000    0.000000    0.000000
         Rot=    1.000000    0.000000    0.000000    0.000000 Ang=   0.00 deg.
 Initial guess orbital symmetries:
       Occupied  (A) (A) (A) (A) (A) (A) (A) (A) (A) (A)
       Virtual   (A) (A) (A) (A) (A) (A) (A) (A) (A) (A) (A) (A)
                 (A) (A) (A) (A) (A) (A) (A) (A) (A) (A) (A) (A)
                 (A) (A) (A) (A) (A) (A) (A) (A) (A) (A) (A) (A)
                 (A) (A) (A) (A) (A) (A) (A) (A) (A)
 Harris functional with IExCor=  402 diagonalized for initial guess.
 ExpMin= 1.61D-01 ExpMax= 5.48D+03 ExpMxC= 8.25D+02 IAcc=1 IRadAn=         1 AccDes= 0.00D+00
 HarFok:  IExCor=  402 AccDes= 0.00D+00 IRadAn=         1 IDoV= 1
 ScaDFX=  1.000000  1.000000  1.000000  1.000000
 FoFCou: FMM=F IPFlag=           0 FMFlag=      100000 FMFlg1=           0
         NFxFlg=           0 DoJE=T BraDBF=F KetDBF=T FulRan=T
         Omega=  0.000000  0.000000  1.000000  0.000000  0.000000 ICntrl=     500 IOpCl=  0
         NMat0=    1 NMatS0=    1 NMatT0=    0 NMatD0=    1 NMtDS0=    0 NMtDT0=    0
         I1Cent=           4 NGrid=           0.
 Petite list used in FoFCou.
 Requested convergence on RMS density matrix=1.00D-08 within 128 cycles.
 Requested convergence on MAX density matrix=1.00D-06.
 Requested convergence on             energy=1.00D-06.
 No special actions if energy rises.
 Keep R1 ints in memory in canonical form, NReq=2144699.
 Integral accuracy reduced to 1.0D-05 until final iterations.
 Initial convergence to 1.0D-05 achieved.  Increase integral accuracy.
 SCF Done:  E(RB3LYP) =  -153.014269380     A.U. after   13 cycles
             Convg  =    0.9926D-08             -V/T =  2.0084
 Calling FoFJK, ICntrl=      2127 FMM=F ISym2X=0 I1Cent= 0 IOpClX= 0 NMat=1 NMatS=1 NMatT=0.
 ***** Axes restored to original set *****
 -------------------------------------------------------------------
 Center     Atomic                   Forces (Hartrees/Bohr)
 Number     Number              X              Y              Z
 -------------------------------------------------------------------
      1        8           0.008003579    0.006912078    0.000763195
      2        1           0.000503635   -0.002037063   -0.000555703
      3        1          -0.003145074   -0.000551513   -0.000512061
      4        8           0.131717468    0.097457598    0.235500533
      5        1          -0.151869064   -0.113714392   -0.153464566
      6        1           0.029419312    0.025932611   -0.081753609
      7        1          -0.014629856   -0.013999318    0.000022211
 -------------------------------------------------------------------
 Cartesian Forces:  Max     0.235500533 RMS     0.084688160

 GradGradGradGradGradGradGradGradGradGradGradGradGradGradGradGradGradGrad
 Berny optimization.
 Using GEDIIS/GDIIS optimizer.
 Internal  Forces:  Max     0.243997345 RMS     0.061471977
 Search for a local minimum.
 Step number   4 out of a maximum of   28
 All quantities printed in internal units (Hartrees-Bohrs-Radians)
 Mixed Optimization -- RFO/linear search
 Update second derivatives using D2CorX and points    3    4
 DE= -4.06D-02 DEPred=-1.03D-01 R= 3.93D-01
 Trust test= 3.93D-01 RLast= 8.49D-01 DXMaxT set to 8.49D-01
 The second derivative matrix:
                          R1        R2        R3        R4        R5
           R1           0.54530
           R2          -0.00884   0.54645
           R3          -0.00138  -0.00129   0.39954
           R4          -0.00345  -0.00315   0.01331   0.60367
           R5           0.00107   0.00097   0.00414  -0.07908   0.05358
           R6           0.00504   0.00472   0.00245  -0.01091  -0.00115
           A1          -0.00643  -0.00603  -0.00142  -0.00448   0.00426
           A2           0.00209   0.00196   0.00037   0.00190  -0.00108
           A3           0.00428   0.00401   0.00104   0.00261  -0.00320
           A4           0.00064   0.00059   0.00084  -0.00560   0.00210
           A5           0.00156   0.00146   0.00070   0.00102  -0.00240
           A6          -0.00055  -0.00052  -0.00037   0.00193   0.00179
           A7          -0.00019  -0.00018   0.00003  -0.00128   0.00022
           A8          -0.00027  -0.00025  -0.00010  -0.00371   0.00128
           D1          -0.00006  -0.00006   0.00014   0.00247  -0.00068
           D2           0.00004   0.00004  -0.00013  -0.00224   0.00060
           D3          -0.00004  -0.00004   0.00013   0.00227  -0.00061
           D4           0.00006   0.00006  -0.00014  -0.00244   0.00068
                          R6        A1        A2        A3        A4
           R6           0.11815
           A1           0.00419   0.15573
           A2          -0.00125   0.00137   0.15956
           A3          -0.00291   0.00286  -0.00091   0.15808
           A4          -0.00070   0.00092  -0.00025  -0.00066   0.16008
           A5          -0.00141   0.00097  -0.00030  -0.00066  -0.00043
           A6           0.00077  -0.00048   0.00013   0.00034   0.00027
           A7           0.00007  -0.00011   0.00004   0.00007   0.00001
           A8           0.00031  -0.00007   0.00003   0.00004   0.00019
           D1          -0.00013  -0.00009   0.00003   0.00006  -0.00011
           D2           0.00013   0.00007  -0.00002  -0.00005   0.00010
           D3          -0.00013  -0.00007   0.00002   0.00005  -0.00010
           D4           0.00013   0.00010  -0.00003  -0.00006   0.00011
                          A5        A6        A7        A8        D1
           A5           0.15986
           A6           0.00024   0.15993
           A7           0.00003   0.00001   0.00230
           A8          -0.00005   0.00000   0.00000   0.00233
           D1           0.00008   0.00003   0.00000  -0.00002   0.00231
           D2          -0.00007  -0.00003   0.00000   0.00002  -0.00001
           D3           0.00007   0.00003   0.00000  -0.00002   0.00001
           D4          -0.00008  -0.00003   0.00000   0.00002  -0.00001
                          D2        D3        D4
           D2           0.00231
           D3          -0.00001   0.00231
           D4           0.00001  -0.00001   0.00231
 ITU=  0  1  1  0
 Use linear search instead of GDIIS.
     Eigenvalues ---    0.00229   0.00230   0.00230   0.00235   0.00905
     Eigenvalues ---    0.04195   0.11708   0.15369   0.15974   0.16000
     Eigenvalues ---    0.16040   0.39893   0.53716   0.55473   0.61629
 RFO step:  Lambda=-1.04278899D-01 EMin= 2.29355042D-03
 Quartic linear search produced a step of -0.25732.
 Iteration  1 RMS(Cart)=  0.05639485 RMS(Int)=  0.09883840
 Iteration  2 RMS(Cart)=  0.04204319 RMS(Int)=  0.05140535
 Iteration  3 RMS(Cart)=  0.04182009 RMS(Int)=  0.00428471
 Iteration  4 RMS(Cart)=  0.00376661 RMS(Int)=  0.00016325
 Iteration  5 RMS(Cart)=  0.00000080 RMS(Int)=  0.00016325
 Variable       Old X    -DE/DX   Delta X   Delta X   Delta X     New X
                                 (Linear)    (Quad)   (Total)
    R1        1.83126   0.00061  -0.00142   0.00629   0.00487   1.83613
    R2        1.83007   0.00063  -0.00131   0.00588   0.00457   1.83464
    R3        2.03021   0.00662  -0.00719   0.02241   0.01522   2.04543
    R4        1.56031   0.24400   0.16656   0.06657   0.23314   1.79345
    R5        3.31679  -0.09064   0.13790  -0.75516  -0.61726   2.69953
    R6        2.58583  -0.01316   0.02491  -0.09757  -0.07266   2.51317
    A1        1.98668   0.00313  -0.00784   0.04141   0.03356   2.02023
    A2        2.12868  -0.00055   0.00155  -0.00957  -0.00804   2.12065
    A3        2.16745  -0.00257   0.00624  -0.03160  -0.02536   2.14208
    A4        1.79147  -0.00237   0.00579  -0.01769  -0.01232   1.77915
    A5        2.35761  -0.00166   0.00344  -0.02666  -0.02358   2.33403
    A6        2.04578   0.00271  -0.00577   0.01509   0.00894   2.05471
    A7        3.12014   0.00185  -0.00463   0.03260   0.02794   3.14809
    A8        3.20393   0.00227  -0.00583   0.05019   0.04431   3.24824
    D1       -1.91023  -0.00110   0.00339  -0.02551  -0.02204  -1.93227
    D2        1.74009   0.00197  -0.00489   0.03672   0.03175   1.77184
    D3        1.21943  -0.00197   0.00492  -0.03688  -0.03188   1.18755
    D4       -1.41343   0.00110  -0.00336   0.02535   0.02191  -1.39152
         Item               Value     Threshold  Converged?
 Maximum Force            0.243997     0.000450     NO 
 RMS     Force            0.061472     0.000300     NO 
 Maximum Displacement     0.384366     0.001800     NO 
 RMS     Displacement     0.135336     0.001200     NO 
 Predicted change in Energy=-7.621953D-02
 GradGradGradGradGradGradGradGradGradGradGradGradGradGradGradGradGradGrad

                          Input orientation:                          
 ---------------------------------------------------------------------
 Center     Atomic      Atomic             Coordinates (Angstroms)
 Number     Number       Type             X           Y           Z
 ---------------------------------------------------------------------
      1          8           0        0.825892    1.265833    0.009645
      2          1           0        1.794766    1.207620   -0.034827
      3          1           0        0.455748    2.163061   -0.013307
      4          8           0       -0.488316   -0.752659    0.123923
      5          1           0       -1.080852   -1.193041   -0.472452
      6          1           0       -1.005585   -1.143647    1.396820
      7          1           0        0.207671    0.378784    0.059897
 ---------------------------------------------------------------------
                    Distance matrix (angstroms):
                    1          2          3          4          5
     1  O    0.000000
     2  H    0.971639   0.000000
     3  H    0.970851   1.645083   0.000000
     4  O    2.411330   3.013363   3.067819   0.000000
     5  H    3.148674   3.771454   3.719594   0.949052   0.000000
     6  H    3.329288   3.926835   3.880499   1.428532   1.871439
     7  H    1.082395   1.792990   1.802927   1.329910   2.101029
                    6          7
     6  H    0.000000
     7  H    2.361599   0.000000
 Stoichiometry    H5O2(1+)
 Framework group  C1[X(H5O2)]
 Deg. of freedom    15
 Full point group                 C1      NOp   1
 Largest Abelian subgroup         C1      NOp   1
 Largest concise Abelian subgroup C1      NOp   1
                         Standard orientation:                         
 ---------------------------------------------------------------------
 Center     Atomic      Atomic             Coordinates (Angstroms)
 Number     Number       Type             X           Y           Z
 ---------------------------------------------------------------------
      1          8           0       -1.214524    0.015070    0.006682
      2          1           0       -1.718203   -0.145547   -0.808544
      3          1           0       -1.743507    0.189212    0.801920
      4          8           0        1.194557   -0.078309   -0.039344
      5          1           0        1.842267   -0.672931    0.317862
      6          1           0        1.912006    1.156621   -0.069639
      7          1           0       -0.132824   -0.021444    0.019698
 ---------------------------------------------------------------------
 Rotational constants (GHZ):    149.6027582      8.2808641      8.2122154
 Standard basis: 6-31G(d,p) (6D, 7F)
 There are    55 symmetry adapted basis functions of A   symmetry.
 Integral buffers will be    131072 words long.
 Raffenetti 2 integral format.
 Two-electron integral symmetry is turned on.
    55 basis functions,    91 primitive gaussians,    55 cartesian basis functions
    10 alpha electrons       10 beta electrons
       nuclear repulsion energy        44.9047817420 Hartrees.
 NAtoms=    7 NActive=    7 NUniq=    7 SFac= 1.00D+00 NAtFMM=   60 NAOKFM=F Big=F
 One-electron integrals computed using PRISM.
 NBasis=    55 RedAO= T  NBF=    55
 NBsUse=    55 1.00D-06 NBFU=    55
 Initial guess read from the read-write file.
 B after Tr=     0.000000    0.000000    0.000000
         Rot=    1.000000    0.000000    0.000000    0.000000 Ang=   0.00 deg.
 Initial guess orbital symmetries:
       Occupied  (A) (A) (A) (A) (A) (A) (A) (A) (A) (A)
       Virtual   (A) (A) (A) (A) (A) (A) (A) (A) (A) (A) (A) (A)
                 (A) (A) (A) (A) (A) (A) (A) (A) (A) (A) (A) (A)
                 (A) (A) (A) (A) (A) (A) (A) (A) (A) (A) (A) (A)
                 (A) (A) (A) (A) (A) (A) (A) (A) (A)
 Harris functional with IExCor=  402 diagonalized for initial guess.
 ExpMin= 1.61D-01 ExpMax= 5.48D+03 ExpMxC= 8.25D+02 IAcc=1 IRadAn=         1 AccDes= 0.00D+00
 HarFok:  IExCor=  402 AccDes= 0.00D+00 IRadAn=         1 IDoV= 1
 ScaDFX=  1.000000  1.000000  1.000000  1.000000
 FoFCou: FMM=F IPFlag=           0 FMFlag=      100000 FMFlg1=           0
         NFxFlg=           0 DoJE=T BraDBF=F KetDBF=T FulRan=T
         Omega=  0.000000  0.000000  1.000000  0.000000  0.000000 ICntrl=     500 IOpCl=  0
         NMat0=    1 NMatS0=    1 NMatT0=    0 NMatD0=    1 NMtDS0=    0 NMtDT0=    0
         I1Cent=           4 NGrid=           0.
 Petite list used in FoFCou.
 Requested convergence on RMS density matrix=1.00D-08 within 128 cycles.
 Requested convergence on MAX density matrix=1.00D-06.
 Requested convergence on             energy=1.00D-06.
 No special actions if energy rises.
 Keep R1 ints in memory in canonical form, NReq=2144699.
 Integral accuracy reduced to 1.0D-05 until final iterations.
 Initial convergence to 1.0D-05 achieved.  Increase integral accuracy.
 SCF Done:  E(RB3LYP) =  -153.107199989     A.U. after   12 cycles
             Convg  =    0.3913D-08             -V/T =  2.0106
 Calling FoFJK, ICntrl=      2127 FMM=F ISym2X=0 I1Cent= 0 IOpClX= 0 NMat=1 NMatS=1 NMatT=0.
 ***** Axes restored to original set *****
 -------------------------------------------------------------------
 Center     Atomic                   Forces (Hartrees/Bohr)
 Number     Number              X              Y              Z
 -------------------------------------------------------------------
      1        8           0.006575484    0.007532895    0.000659061
      2        1          -0.002374478    0.001294670   -0.000345084
      3        1           0.001727349   -0.001667577   -0.000388367
      4        8          -0.021489066   -0.021186425    0.121384582
      5        1          -0.014313994   -0.006728876   -0.017166952
      6        1           0.041557412    0.032323345   -0.102339735
      7        1          -0.011682706   -0.011568032   -0.001803505
 -------------------------------------------------------------------
 Cartesian Forces:  Max     0.121384582 RMS     0.037684337

 GradGradGradGradGradGradGradGradGradGradGradGradGradGradGradGradGradGrad
 Berny optimization.
 Using GEDIIS/GDIIS optimizer.
 Internal  Forces:  Max     0.115058078 RMS     0.027843805
 Search for a local minimum.
 Step number   5 out of a maximum of   28
 All quantities printed in internal units (Hartrees-Bohrs-Radians)
 Mixed Optimization -- RFO/linear search
 Update second derivatives using D2CorX and points    4    5
 DE= -9.29D-02 DEPred=-7.62D-02 R= 1.22D+00
 SS=  1.41D+00  RLast= 6.70D-01 DXNew= 1.4270D+00 2.0108D+00
 Trust test= 1.22D+00 RLast= 6.70D-01 DXMaxT set to 1.43D+00
 The second derivative matrix:
                          R1        R2        R3        R4        R5
           R1           0.54555
           R2          -0.00861   0.54666
           R3          -0.00163  -0.00153   0.39921
           R4           0.01370   0.01260  -0.01815   1.44378
           R5           0.00330   0.00307   0.00659   0.19212   0.03566
           R6           0.00456   0.00428   0.00374  -0.02422  -0.01205
           A1          -0.00607  -0.00570  -0.00182   0.01928   0.00787
           A2           0.00198   0.00186   0.00046  -0.00630  -0.00197
           A3           0.00404   0.00379   0.00134  -0.01295  -0.00589
           A4           0.00020   0.00019   0.00160  -0.02772  -0.00450
           A5           0.00189   0.00177   0.00057   0.02894  -0.00108
           A6          -0.00041  -0.00039  -0.00055   0.01073   0.00339
           A7          -0.00005  -0.00005  -0.00006   0.00978   0.00108
           A8          -0.00019  -0.00018  -0.00003   0.00518   0.00078
           D1          -0.00009  -0.00008   0.00008  -0.00157  -0.00024
           D2           0.00009   0.00008  -0.00010   0.00276   0.00038
           D3          -0.00009  -0.00008   0.00010  -0.00296  -0.00040
           D4           0.00009   0.00008  -0.00008   0.00137   0.00022
                          R6        A1        A2        A3        A4
           R6           0.11795
           A1           0.00356   0.15625
           A2          -0.00101   0.00120   0.15961
           A3          -0.00251   0.00251  -0.00080   0.15832
           A4          -0.00032   0.00031  -0.00004  -0.00027   0.16066
           A5          -0.00233   0.00147  -0.00044  -0.00101  -0.00113
           A6           0.00055  -0.00028   0.00006   0.00021   0.00004
           A7          -0.00027   0.00010  -0.00002  -0.00007  -0.00026
           A8          -0.00004   0.00005   0.00000  -0.00005  -0.00003
           D1           0.00004  -0.00014   0.00004   0.00010  -0.00001
           D2          -0.00007   0.00014  -0.00004  -0.00010  -0.00002
           D3           0.00007  -0.00015   0.00004   0.00010   0.00003
           D4          -0.00004   0.00014  -0.00004  -0.00010   0.00002
                          A5        A6        A7        A8        D1
           A5           0.16023
           A6           0.00044   0.16000
           A7           0.00020   0.00010   0.00238
           A8           0.00000   0.00005   0.00003   0.00232
           D1           0.00007   0.00001  -0.00001  -0.00001   0.00230
           D2          -0.00004   0.00000   0.00002   0.00001  -0.00001
           D3           0.00003  -0.00001  -0.00002  -0.00001   0.00001
           D4          -0.00008  -0.00001   0.00001   0.00001   0.00000
                          D2        D3        D4
           D2           0.00231
           D3          -0.00001   0.00231
           D4           0.00001  -0.00001   0.00230
 ITU=  1  0  1  1  0
 Use linear search instead of GDIIS.
     Eigenvalues ---    0.00230   0.00230   0.00230   0.00233   0.00835
     Eigenvalues ---    0.01119   0.11740   0.15414   0.15974   0.16000
     Eigenvalues ---    0.16040   0.39916   0.53753   0.55473   1.47253
 RFO step:  Lambda=-1.75122994D-01 EMin= 2.29618363D-03
 Quartic linear search produced a step of  2.00000.
 Iteration  1 RMS(Cart)=  0.07143141 RMS(Int)=  0.38422520
 Iteration  2 RMS(Cart)=  0.04376400 RMS(Int)=  0.33667948
 Iteration  3 RMS(Cart)=  0.04173433 RMS(Int)=  0.28954702
 Iteration  4 RMS(Cart)=  0.04167576 RMS(Int)=  0.24241531
 Iteration  5 RMS(Cart)=  0.04161527 RMS(Int)=  0.19528362
 Iteration  6 RMS(Cart)=  0.04155544 RMS(Int)=  0.14815220
 Iteration  7 RMS(Cart)=  0.04149562 RMS(Int)=  0.10102145
 Iteration  8 RMS(Cart)=  0.04143667 RMS(Int)=  0.05389263
 Iteration  9 RMS(Cart)=  0.04137979 RMS(Int)=  0.00679604
 Iteration 10 RMS(Cart)=  0.00591260 RMS(Int)=  0.00006536
 Iteration 11 RMS(Cart)=  0.00000294 RMS(Int)=  0.00006530
 Iteration 12 RMS(Cart)=  0.00000000 RMS(Int)=  0.00006530
 Variable       Old X    -DE/DX   Delta X   Delta X   Delta X     New X
                                 (Linear)    (Quad)   (Total)
    R1        1.83613  -0.00243   0.00974  -0.00546   0.00428   1.84041
    R2        1.83464  -0.00219   0.00914  -0.00499   0.00415   1.83879
    R3        2.04543   0.00928   0.03043   0.02611   0.05655   2.10198
    R4        1.79345   0.02285   0.46628  -0.18899   0.27729   2.07074
    R5        2.69953  -0.11506  -1.23452  -0.58957  -1.82409   0.87544
    R6        2.51317  -0.00672  -0.14532  -0.01764  -0.16296   2.35020
    A1        2.02023  -0.00131   0.06711  -0.00618   0.06091   2.08115
    A2        2.12065   0.00082  -0.01607   0.00374  -0.01236   2.10829
    A3        2.14208   0.00048  -0.05073   0.00233  -0.04842   2.09366
    A4        1.77915   0.00321  -0.02464   0.01811  -0.00636   1.77280
    A5        2.33403  -0.00558  -0.04716  -0.02630  -0.07332   2.26071
    A6        2.05471   0.00094   0.01787   0.00316   0.02118   2.07589
    A7        3.14809   0.00014   0.05589  -0.00547   0.05043   3.19852
    A8        3.24824   0.00143   0.08863   0.00499   0.09362   3.34186
    D1       -1.93227  -0.00082  -0.04408  -0.00273  -0.04685  -1.97912
    D2        1.77184   0.00147   0.06350   0.00545   0.06899   1.84083
    D3        1.18755  -0.00143  -0.06375  -0.00513  -0.06892   1.11863
    D4       -1.39152   0.00085   0.04383   0.00305   0.04692  -1.34460
         Item               Value     Threshold  Converged?
 Maximum Force            0.115058     0.000450     NO 
 RMS     Force            0.027844     0.000300     NO 
 Maximum Displacement     1.176229     0.001800     NO 
 RMS     Displacement     0.384458     0.001200     NO 
 Predicted change in Energy=-2.029636D-01
 GradGradGradGradGradGradGradGradGradGradGradGradGradGradGradGradGradGrad

                          Input orientation:                          
 ---------------------------------------------------------------------
 Center     Atomic      Atomic             Coordinates (Angstroms)
 Number     Number       Type             X           Y           Z
 ---------------------------------------------------------------------
      1          8           0        0.789755    1.207815    0.062555
      2          1           0        1.759796    1.134876    0.015752
      3          1           0        0.372522    2.079307   -0.052512
      4          8           0       -0.491071   -0.744433    0.364741
      5          1           0       -1.193559   -1.222407   -0.327212
      6          1           0       -0.686616   -0.836993    0.774386
      7          1           0        0.158497    0.307784    0.231988
 ---------------------------------------------------------------------
                    Distance matrix (angstroms):
                    1          2          3          4          5
     1  O    0.000000
     2  H    0.973904   0.000000
     3  H    0.973047   1.679624   0.000000
     4  O    2.354380   2.952964   2.982181   0.000000
     5  H    3.160923   3.794300   3.664613   1.095786   0.000000
     6  H    2.620613   3.232448   3.210971   0.463265   1.272421
     7  H    1.112318   1.815213   1.806942   1.243673   2.117131
                    6          7
     6  H    0.000000
     7  H    1.522801   0.000000
 Stoichiometry    H5O2(1+)
 Framework group  C1[X(H5O2)]
 Deg. of freedom    15
 Full point group                 C1      NOp   1
 Largest Abelian subgroup         C1      NOp   1
 Largest concise Abelian subgroup C1      NOp   1
                         Standard orientation:                         
 ---------------------------------------------------------------------
 Center     Atomic      Atomic             Coordinates (Angstroms)
 Number     Number       Type             X           Y           Z
 ---------------------------------------------------------------------
      1          8           0       -1.171560   -0.010518   -0.009432
      2          1           0       -1.665834    0.797024   -0.237597
      3          1           0       -1.659926   -0.835176    0.158667
      4          8           0        1.181248    0.062629    0.035864
      5          1           0        1.899728   -0.443176   -0.618885
      6          1           0        1.409250    0.065845    0.439125
      7          1           0       -0.060724   -0.001405    0.047233
 ---------------------------------------------------------------------
 Rotational constants (GHZ):    221.7416312      8.9953160      8.8512292
 Standard basis: 6-31G(d,p) (6D, 7F)
 There are    55 symmetry adapted basis functions of A   symmetry.
 Integral buffers will be    131072 words long.
 Raffenetti 2 integral format.
 Two-electron integral symmetry is turned on.
    55 basis functions,    91 primitive gaussians,    55 cartesian basis functions
    10 alpha electrons       10 beta electrons
       nuclear repulsion energy        51.6269130015 Hartrees.
 NAtoms=    7 NActive=    7 NUniq=    7 SFac= 1.00D+00 NAtFMM=   60 NAOKFM=F Big=F
 One-electron integrals computed using PRISM.
 NBasis=    55 RedAO= T  NBF=    55
 NBsUse=    55 1.00D-06 NBFU=    55
 Initial guess read from the read-write file.
 B after Tr=     0.000000    0.000000    0.000000
         Rot=    1.000000    0.000000    0.000000    0.000000 Ang=   0.00 deg.
 Initial guess orbital symmetries:
       Occupied  (A) (A) (A) (A) (A) (A) (A) (A) (A) (A)
       Virtual   (A) (A) (A) (A) (A) (A) (A) (A) (A) (A) (A) (A)
                 (A) (A) (A) (A) (A) (A) (A) (A) (A) (A) (A) (A)
                 (A) (A) (A) (A) (A) (A) (A) (A) (A) (A) (A) (A)
                 (A) (A) (A) (A) (A) (A) (A) (A) (A)
 Harris functional with IExCor=  402 diagonalized for initial guess.
 ExpMin= 1.61D-01 ExpMax= 5.48D+03 ExpMxC= 8.25D+02 IAcc=1 IRadAn=         1 AccDes= 0.00D+00
 HarFok:  IExCor=  402 AccDes= 0.00D+00 IRadAn=         1 IDoV= 1
 ScaDFX=  1.000000  1.000000  1.000000  1.000000
 FoFCou: FMM=F IPFlag=           0 FMFlag=      100000 FMFlg1=           0
         NFxFlg=           0 DoJE=T BraDBF=F KetDBF=T FulRan=T
         Omega=  0.000000  0.000000  1.000000  0.000000  0.000000 ICntrl=     500 IOpCl=  0
         NMat0=    1 NMatS0=    1 NMatT0=    0 NMatD0=    1 NMtDS0=    0 NMtDT0=    0
         I1Cent=           4 NGrid=           0.
 Petite list used in FoFCou.
 Requested convergence on RMS density matrix=1.00D-08 within 128 cycles.
 Requested convergence on MAX density matrix=1.00D-06.
 Requested convergence on             energy=1.00D-06.
 No special actions if energy rises.
 Keep R1 ints in memory in canonical form, NReq=2144685.
 Integral accuracy reduced to 1.0D-05 until final iterations.
 Initial convergence to 1.0D-05 achieved.  Increase integral accuracy.
 SCF Done:  E(RB3LYP) =  -152.100708194     A.U. after   13 cycles
             Convg  =    0.4414D-08             -V/T =  1.9858
 Calling FoFJK, ICntrl=      2127 FMM=F ISym2X=0 I1Cent= 0 IOpClX= 0 NMat=1 NMatS=1 NMatT=0.
 ***** Axes restored to original set *****
 -------------------------------------------------------------------
 Center     Atomic                   Forces (Hartrees/Bohr)
 Number     Number              X              Y              Z
 -------------------------------------------------------------------
      1        8           0.000272328    0.003715082    0.001161415
      2        1          -0.004973767    0.007624686   -0.000720288
      3        1           0.010207573   -0.000764443   -0.000101064
      4        8           1.778154316    0.830561639   -3.958627676
      5        1           0.062797039    0.041766959    0.040637437
      6        1          -1.845274067   -0.876949573    3.925899119
      7        1          -0.001183422   -0.005954350   -0.008248943
 -------------------------------------------------------------------
 Cartesian Forces:  Max     3.958627676 RMS     1.364809545

 GradGradGradGradGradGradGradGradGradGradGradGradGradGradGradGradGradGrad
 Berny optimization.
 Using GEDIIS/GDIIS optimizer.
 Internal  Forces:  Max     4.425152630 RMS     1.043267018
 Search for a local minimum.
 Step number   6 out of a maximum of   28
 All quantities printed in internal units (Hartrees-Bohrs-Radians)
 Mixed Optimization -- RFO/linear search
 Update second derivatives using D2CorX and points    6    5
 DE=  1.01D+00 DEPred=-2.03D-01 R=-4.96D+00
 Trust test=-4.96D+00 RLast= 1.86D+00 DXMaxT set to 7.14D-01
 The second derivative matrix:
                          R1        R2        R3        R4        R5
           R1           0.54548
           R2          -0.00868   0.54660
           R3          -0.00141  -0.00133   0.39852
           R4           0.01637   0.01500  -0.02627   1.34938
           R5           0.00123   0.00115   0.00901   0.14818   2.51230
           R6           0.00440   0.00414   0.00422  -0.01877  -0.00523
           A1          -0.00609  -0.00571  -0.00176   0.02014   0.00298
           A2           0.00199   0.00186   0.00043  -0.00669  -0.00051
           A3           0.00404   0.00379   0.00131  -0.01340  -0.00264
           A4           0.00019   0.00019   0.00164  -0.02716  -0.00902
           A5           0.00184   0.00172   0.00074   0.03134  -0.01607
           A6          -0.00040  -0.00038  -0.00056   0.01101  -0.00859
           A7           0.00000  -0.00001  -0.00020   0.00829  -0.00268
           A8          -0.00018  -0.00017  -0.00007   0.00479  -0.00110
           D1          -0.00010  -0.00009   0.00010  -0.00144   0.00470
           D2           0.00010   0.00009  -0.00014   0.00243  -0.00503
           D3          -0.00011  -0.00010   0.00015  -0.00260   0.00506
           D4           0.00010   0.00009  -0.00010   0.00128  -0.00467
                          R6        A1        A2        A3        A4
           R6           0.11764
           A1           0.00350   0.15625
           A2          -0.00098   0.00120   0.15961
[...]
     6   1    -0.04   0.39  -0.24    -0.29  -0.25   0.34     0.04   0.38  -0.26
     7   1     0.00   0.00   0.00     0.16   0.00  -0.14     0.00  -0.17   0.00
                     4                      5                      6
                     A                      A                      A
 Frequencies --   482.5196               511.7945               618.3120
 Red. masses --     1.1221                 1.1065                 4.8297
 Frc consts  --     0.1539                 0.1708                 1.0879
 IR Inten    --     9.3802                 8.0326                 0.5028
  Atom  AN      X      Y      Z        X      Y      Z        X      Y      Z
     1   8     0.02   0.01   0.06     0.00   0.06   0.00     0.36   0.00  -0.02
     2   1     0.48  -0.04  -0.27    -0.39  -0.12   0.13     0.22  -0.03   0.05
     3   1    -0.30   0.14  -0.14     0.42  -0.22   0.02     0.55  -0.11   0.00
     4   8    -0.02   0.01  -0.06     0.00  -0.06   0.00    -0.36   0.00   0.02
     5   1     0.30   0.14   0.14     0.43   0.22   0.02    -0.55  -0.11   0.00
     6   1    -0.47  -0.04   0.27    -0.39   0.13   0.13    -0.22  -0.03  -0.05
     7   1     0.00  -0.37   0.00    -0.06   0.00  -0.40     0.00   0.13   0.00
                     7                      8                      9
                     A                      A                      A
 Frequencies --  1085.8297              1449.4685              1541.8591
 Red. masses --     1.0220                 1.0624                 1.0637
 Frc consts  --     0.7100                 1.3151                 1.4898
 IR Inten    --  2451.3632               347.5880               134.1725
  Atom  AN      X      Y      Z        X      Y      Z        X      Y      Z
     1   8     0.01  -0.01  -0.01     0.02  -0.02   0.04     0.02   0.04  -0.01
     2   1     0.13   0.18   0.02     0.10  -0.06  -0.06    -0.35  -0.17   0.08
     3   1     0.14  -0.03   0.19    -0.24   0.09  -0.08    -0.02   0.00  -0.15
     4   8     0.01   0.01  -0.01     0.01   0.02   0.04    -0.02   0.04   0.01
     5   1     0.14   0.03   0.19    -0.24  -0.09  -0.08     0.02   0.00   0.15
     6   1     0.13  -0.18   0.02     0.10   0.06  -0.06     0.35  -0.17  -0.08
     7   1    -0.88   0.00   0.07    -0.19   0.00  -0.88     0.00  -0.79   0.00
                    10                     11                     12
                     A                      A                      A
 Frequencies --  1691.1410              1769.4203              3750.8661
 Red. masses --     1.0787                 1.0981                 1.0414
 Frc consts  --     1.8177                 2.0257                 8.6322
 IR Inten    --     4.2286              1358.3912               229.4734
  Atom  AN      X      Y      Z        X      Y      Z        X      Y      Z
     1   8    -0.04   0.01  -0.02     0.05   0.01   0.00     0.03   0.01   0.01
     2   1     0.25   0.26  -0.04    -0.37  -0.27   0.08    -0.24   0.25  -0.38
     3   1     0.39  -0.16   0.27    -0.29   0.11  -0.26    -0.24  -0.38   0.16
     4   8     0.04   0.01   0.02     0.05  -0.01   0.00     0.03  -0.01   0.01
     5   1    -0.39  -0.16  -0.27    -0.29  -0.11  -0.26    -0.24   0.38   0.16
     6   1    -0.25   0.26   0.04    -0.37   0.27   0.08    -0.24  -0.25  -0.39
     7   1     0.00  -0.49   0.00    -0.40   0.00   0.29     0.03   0.00   0.01
                    13                     14                     15
                     A                      A                      A
 Frequencies --  3759.8415              3853.5813              3853.9742
 Red. masses --     1.0444                 1.0870                 1.0871
 Frc consts  --     8.6984                 9.5106                 9.5131
 IR Inten    --     7.6776               231.0406               322.4200
  Atom  AN      X      Y      Z        X      Y      Z        X      Y      Z
     1   8    -0.03  -0.01  -0.01     0.00  -0.03   0.03     0.00   0.05  -0.04
     2   1     0.24  -0.25   0.39    -0.18   0.17  -0.28     0.27  -0.26   0.43
     3   1     0.24   0.38  -0.16     0.21   0.32  -0.12    -0.32  -0.49   0.19
     4   8     0.03  -0.01   0.01     0.00   0.05   0.04     0.00   0.03   0.03
     5   1    -0.24   0.38   0.16     0.32  -0.49  -0.19     0.21  -0.32  -0.12
     6   1    -0.24  -0.25  -0.39    -0.27  -0.26  -0.43    -0.18  -0.17  -0.28
     7   1     0.00  -0.01   0.00     0.00   0.00   0.00     0.00   0.00   0.00

 -------------------
 - Thermochemistry -
 -------------------
 Temperature   298.150 Kelvin.  Pressure   1.00000 Atm.
 Atom     1 has atomic number  8 and mass  15.99491
 Atom     2 has atomic number  1 and mass   1.00783
 Atom     3 has atomic number  1 and mass   1.00783
 Atom     4 has atomic number  8 and mass  15.99491
 Atom     5 has atomic number  1 and mass   1.00783
 Atom     6 has atomic number  1 and mass   1.00783
 Atom     7 has atomic number  1 and mass   1.00783
 Molecular mass:    37.02895 amu.
 Principal axes and moments of inertia in atomic units:
                           1         2         3
     Eigenvalues --    10.11262 208.92236 210.13251
           X            0.99983   0.00000   0.01868
           Y            0.00000   1.00000  -0.00003
           Z           -0.01868   0.00003   0.99983
 This molecule is an asymmetric top.
 Rotational symmetry number  1.
 Rotational temperatures (Kelvin)      8.56492     0.41457     0.41219
 Rotational constants (GHZ):         178.46423     8.63833     8.58859
 Zero-point vibrational energy     151531.7 (Joules/Mol)
                                   36.21696 (Kcal/Mol)
 Warning -- explicit consideration of   6 degrees of freedom as
           vibrations may cause significant error
 Vibrational temperatures:    235.57   546.22   607.38   694.24   736.36
          (Kelvin)            889.61  1562.26  2085.46  2218.39  2433.17
                             2545.80  5396.65  5409.57  5544.44  5545.00
 
 Zero-point correction=                           0.057715 (Hartree/Particle)
 Thermal correction to Energy=                    0.062429
 Thermal correction to Enthalpy=                  0.063373
 Thermal correction to Gibbs Free Energy=         0.033078
 Sum of electronic and zero-point Energies=           -153.134131
 Sum of electronic and thermal Energies=              -153.129417
 Sum of electronic and thermal Enthalpies=            -153.128473
 Sum of electronic and thermal Free Energies=         -153.158769
 
                     E (Thermal)             CV                S
                      KCal/Mol        Cal/Mol-Kelvin    Cal/Mol-Kelvin
 Total                   39.175             14.803             63.763
 Electronic               0.000              0.000              0.000
 Translational            0.889              2.981             36.757
 Rotational               0.889              2.981             20.723
 Vibrational             37.397              8.841              6.283
 Vibration     1          0.623              1.887              2.506
 Vibration     2          0.750              1.514              1.041
 Vibration     3          0.784              1.422              0.885
 Vibration     4          0.839              1.289              0.703
 Vibration     5          0.867              1.224              0.629
 Vibration     6          0.978              0.993              0.419
                       Q            Log10(Q)             Ln(Q)
 Total Bot       0.610007D-15        -15.214665        -35.033061
 Total V=0       0.215039D+12         11.332517         26.094084
 Vib (Bot)       0.913167D-26        -26.039450        -59.958049
 Vib (Bot)    1  0.123332D+01          0.091077          0.209713
 Vib (Bot)    2  0.476375D+00         -0.322051         -0.741551
 Vib (Bot)    3  0.415254D+00         -0.381687         -0.878866
 Vib (Bot)    4  0.345861D+00         -0.461098         -1.061718
 Vib (Bot)    5  0.317754D+00         -0.497909         -1.146477
 Vib (Bot)    6  0.236937D+00         -0.625367         -1.439960
 Vib (V=0)       0.321908D+01          0.507732          1.169096
 Vib (V=0)    1  0.183082D+01          0.262646          0.604765
 Vib (V=0)    2  0.119060D+01          0.075767          0.174460
 Vib (V=0)    3  0.114995D+01          0.060679          0.139719
 Vib (V=0)    4  0.110796D+01          0.044526          0.102524
 Vib (V=0)    5  0.109243D+01          0.038392          0.088400
 Vib (V=0)    6  0.105330D+01          0.022551          0.051927
 Electronic      0.100000D+01          0.000000          0.000000
 Translational   0.885661D+07          6.947267         15.996674
 Rotational      0.754254D+04          3.877517          8.928314
 ***** Axes restored to original set *****
 -------------------------------------------------------------------
 Center     Atomic                   Forces (Hartrees/Bohr)
 Number     Number              X              Y              Z
 -------------------------------------------------------------------
      1        8           0.000019614   -0.000017423    0.000003333
      2        1           0.000002258    0.000009416   -0.000002139
      3        1          -0.000008069   -0.000001577   -0.000002334
      4        8          -0.000015957   -0.000016153   -0.000014186
      5        1           0.000009445    0.000002717    0.000008627
      6        1           0.000004956    0.000012671    0.000000657
      7        1          -0.000012247    0.000010349    0.000006042
 -------------------------------------------------------------------
 Cartesian Forces:  Max     0.000019614 RMS     0.000010323

 GradGradGradGradGradGradGradGradGradGradGradGradGradGradGradGradGradGrad
 Berny optimization.
 Internal  Forces:  Max     0.000017653 RMS     0.000007972
 Search for a local minimum.
 Step number   1 out of a maximum of    2
 All quantities printed in internal units (Hartrees-Bohrs-Radians)
 Second derivative matrix not updated -- analytic derivatives used.
 The second derivative matrix:
                          R1        R2        R3        R4        R5
           R1           0.51926
           R2          -0.00231   0.52143
           R3           0.00496   0.00454   0.14287
           R4           0.00044   0.00055  -0.00336   0.52137
           R5           0.00042   0.00040  -0.00343  -0.00244   0.51904
           R6          -0.00337  -0.00332   0.11497   0.00465   0.00495
           A1           0.00955   0.01010   0.00347  -0.00008  -0.00041
           A2          -0.00001  -0.00513  -0.00039  -0.00006  -0.00010
           A3          -0.00484  -0.00021   0.00002   0.00009  -0.00014
           A4          -0.00012  -0.00020  -0.01188   0.00945   0.00760
           A5           0.00024  -0.00001   0.01063  -0.00072  -0.00629
           A6          -0.00013  -0.00007   0.00814  -0.00530  -0.00116
           A7           0.00533   0.00537   0.00314  -0.00037  -0.00253
           A8           0.00045  -0.00061  -0.00114  -0.00284  -0.00209
           D1          -0.00345  -0.00379   0.00056   0.00393   0.00379
           D2          -0.00435  -0.00400  -0.00420  -0.00388  -0.00457
           D3           0.00418   0.00386   0.00426   0.00391   0.00461
           D4           0.00327   0.00364  -0.00050  -0.00390  -0.00376
                          R6        A1        A2        A3        A4
           R6           0.14303
           A1          -0.01185   0.06661
           A2           0.00782  -0.03662   0.05377
           A3           0.01080  -0.03556  -0.01052   0.05364
           A4           0.00337   0.00085  -0.00023  -0.00183   0.06450
           A5          -0.00012  -0.00110   0.00068   0.00399  -0.03650
           A6          -0.00033  -0.00110  -0.00147  -0.00014  -0.03677
           A7           0.00145   0.00959   0.00350   0.00096  -0.00176
           A8          -0.00235  -0.00037   0.00412  -0.00389  -0.00221
           D1          -0.00041  -0.00576   0.00154   0.00279   0.00589
           D2          -0.00415  -0.00558   0.00171   0.00160  -0.00540
           D3           0.00429   0.00525  -0.00219  -0.00132   0.00532
           D4           0.00055   0.00543  -0.00202  -0.00251  -0.00596
                          A5        A6        A7        A8        D1
           A5           0.05351
           A6          -0.01032   0.05418
           A7           0.00718  -0.00822   0.04786
           A8           0.00055  -0.00001  -0.00071   0.01297
           D1          -0.00239  -0.00215   0.00108  -0.00043   0.00482
           D2           0.00142   0.00213  -0.00052  -0.00037   0.00043
           D3          -0.00142  -0.00225  -0.00013  -0.00018  -0.00007
           D4           0.00239   0.00203  -0.00174  -0.00012  -0.00446
                          D2        D3        D4
           D2           0.00546
           D3          -0.00454   0.00436
           D4           0.00049  -0.00010   0.00485
 ITU=  0
     Eigenvalues ---    0.00063   0.00712   0.00855   0.01236   0.02390
     Eigenvalues ---    0.04290   0.06500   0.07004   0.10933   0.11073
     Eigenvalues ---    0.25976   0.51789   0.51925   0.52288   0.52318
 Angle between quadratic step and forces=  79.15 degrees.
 Linear search not attempted -- first point.
 Iteration  1 RMS(Cart)=  0.00088282 RMS(Int)=  0.00000056
 Iteration  2 RMS(Cart)=  0.00000056 RMS(Int)=  0.00000000
 Variable       Old X    -DE/DX   Delta X   Delta X   Delta X     New X
                                 (Linear)    (Quad)   (Total)
    R1        1.83542   0.00000   0.00000   0.00000   0.00000   1.83542
    R2        1.83426   0.00000   0.00000   0.00001   0.00001   1.83426
    R3        2.26712   0.00000   0.00000   0.00002   0.00002   2.26714
    R4        1.83429  -0.00001   0.00000  -0.00003  -0.00003   1.83426
    R5        1.83543  -0.00001   0.00000  -0.00001  -0.00001   1.83542
    R6        2.26715   0.00000   0.00000  -0.00001  -0.00001   2.26714
    A1        1.91870   0.00000   0.00000   0.00001   0.00001   1.91871
    A2        2.05056   0.00002   0.00000   0.00034   0.00034   2.05090
    A3        2.09122  -0.00002   0.00000  -0.00025  -0.00025   2.09097
    A4        1.91864   0.00001   0.00000   0.00007   0.00007   1.91871
    A5        2.09087   0.00000   0.00000   0.00010   0.00010   2.09097
    A6        2.05111  -0.00002   0.00000  -0.00022  -0.00022   2.05090
    A7        3.08648   0.00000   0.00000  -0.00003  -0.00003   3.08644
    A8        3.31292   0.00000   0.00000   0.00006   0.00006   3.31298
    D1       -1.76489   0.00000   0.00000   0.00225   0.00225  -1.76264
    D2        2.08070   0.00000   0.00000   0.00230   0.00230   2.08300
    D3        0.67236   0.00000   0.00000   0.00253   0.00253   0.67489
    D4       -1.76523   0.00000   0.00000   0.00258   0.00258  -1.76265
         Item               Value     Threshold  Converged?
 Maximum Force            0.000018     0.000450     YES
 RMS     Force            0.000008     0.000300     YES
 Maximum Displacement     0.001825     0.001800     NO 
 RMS     Displacement     0.000883     0.001200     YES
 Predicted change in Energy=-1.547786D-08
 GradGradGradGradGradGradGradGradGradGradGradGradGradGradGradGradGradGrad

 1\1\GINC-NISER-THINKCENTRE-M93P\Freq\RB3LYP\6-31G(d,p)\H5O2(1+)\STUDEN
 T\01-Mar-2021\0\\#N Geom=AllCheck Guess=TCheck SCRF=Check GenChk RB3LY
 P/6-31G(d,p) Freq\\b3Llyp\\1,1\O,0.7977891225,1.2549769958,0.189396672
 5\H,1.7305977422,1.1698708422,-0.0674591325\H,0.4329154629,2.084177929
 5,-0.1590967977\O,-0.4653983665,-0.7803603696,0.2579118072\H,-1.071514
 3996,-1.0422584233,-0.4535801617\H,-0.8435796417,-1.0197802059,1.11989
 47694\H,0.1285150001,0.2593228714,0.1826314829\\Version=EM64L-G09RevC.
 01\State=1-A\HF=-153.1918465\RMSD=4.894e-09\RMSF=1.032e-05\ZeroPoint=0
 .0577154\Thermal=0.0624293\Dipole=-0.3385559,0.1975013,-0.3697139\Dipo
 leDeriv=-0.6785776,-0.313132,0.006005,-0.3176413,-0.9324034,0.0007421,
 -0.0146876,-0.0295684,-0.5139267,0.4621059,-0.0004262,0.0111645,-0.030
 2504,0.30955,0.0267535,0.0263376,0.0255965,0.4116724,0.3302001,-0.0779
 606,0.0168484,-0.0443728,0.4320906,0.0147396,0.0081871,0.0265423,0.412
 2658,-0.6583019,-0.2472622,0.0279606,-0.2835967,-0.9975918,0.0380511,0
 .0268735,0.0310582,-0.4690544,0.3800354,-0.0374784,0.0239992,-0.033641
 3,0.3850924,0.0540312,0.0526602,0.0764735,0.4093274,0.3616298,-0.05525
 56,-0.0115604,-0.0468667,0.3855084,-0.0421414,-0.0382132,-0.060669,0.4
 362497,0.8029083,0.731515,-0.0744172,0.7563692,1.4177537,-0.0921762,-0
 .0611576,-0.069433,0.3134659\Polar=11.7277411,3.1311039,12.9371996,-0.
 2557358,-1.0960889,9.2692396\PG=C01 [X(H5O2)]\NImag=0\\0.66895201,-0.1
 3482561,0.55931269,-0.06947908,-0.16333243,0.12643747,-0.46532408,0.05
 241652,0.11378008,0.48222809,0.02414612,-0.06767249,0.00976226,-0.0481
 9836,0.05530738,0.14496999,-0.00007902,-0.04500937,-0.12405586,-0.0018
 2723,0.04284554,-0.12819619,0.12473426,-0.04518628,-0.00964513,0.03615
 309,-0.01821158,0.12537261,0.15468074,-0.37918944,0.14847836,-0.002642
 03,0.00123132,0.00205299,-0.15740192,0.38643635,-0.06717663,0.17169760
 ,-0.07218642,0.00688118,-0.01276737,0.00342833,0.05851615,-0.15612904,
 0.07008738,-0.01867214,-0.04871883,0.00503536,0.00153589,-0.00263428,-
 0.00018746,-0.00699309,-0.00153275,-0.00142700,0.37127788,-0.04731321,
 -0.05640771,0.00664306,0.00245975,-0.00903713,-0.00113973,-0.00637963,
 0.00035589,-0.00175116,0.23432922,0.22979425,0.00529162,0.00497531,0.0
 1336791,-0.00089153,-0.00035348,0.00003357,-0.00077373,-0.00130889,0.0
 0027643,0.05555426,-0.02342132,0.75355807,0.00081989,-0.00069873,0.000
 92460,-0.00011662,-0.00030445,-0.00030824,-0.00007594,-0.00053791,-0.0
 0013676,-0.21975611,-0.10846656,-0.23036428,0.21219143,-0.00169217,-0.
 00553149,0.00250368,-0.00049083,-0.00041426,0.00014641,-0.00147822,-0.
 00102797,-0.00033376,-0.10131542,-0.06213175,-0.08117715,0.09923562,0.
 05692637,0.00363320,0.00646651,-0.00165159,-0.00027818,0.00044626,0.00
 043745,0.00078284,0.00015486,0.00052115,-0.18852088,-0.07037860,-0.297
 65007,0.21705935,0.08675379,0.31274394,-0.00105614,-0.00247976,-0.0007
 3393,0.00019114,-0.00028338,0.00034114,0.00002403,-0.00037656,-0.00031
 244,-0.11166579,-0.07861046,0.17621153,0.01194064,0.00900498,-0.027473
 64,0.10193310,-0.00250307,-0.00535029,-0.00194719,-0.00034700,-0.00004
 966,-0.00017194,-0.00066155,-0.00032135,0.00016634,-0.06970257,-0.0572
 3944,0.09662014,0.00682856,0.00420413,-0.01092936,0.06617330,0.0516848
 4,-0.00418017,-0.00585885,-0.00106171,0.00052813,-0.00021129,0.0003483
 0,-0.00033557,0.00037674,0.00020240,0.13465422,0.08867746,-0.40907811,
 0.01721695,0.00783815,-0.02113119,-0.15556749,-0.10131508,0.42673948,-
 0.05652335,0.00957215,-0.00434076,-0.00886929,-0.00887873,-0.00254799,
 0.01951371,0.00781044,0.00365550,-0.01572664,0.00398091,-0.00502788,-0
 .00500329,-0.00326396,-0.00520269,-0.00136699,0.00021234,0.00768393,0.
 06797586,0.00750720,-0.04516127,-0.00210774,-0.00319804,0.02063485,0.0
 0101852,0.00503398,-0.00748481,-0.00088261,-0.01042537,-0.04533411,0.0
 0466540,0.00394347,0.00797497,-0.01251346,0.00657189,0.00707177,0.0104
 9286,-0.00943313,0.06229860,-0.01305893,-0.01386912,-0.01989629,0.0040
 3617,0.00495084,-0.00208381,0.00520816,0.00637498,-0.00232927,-0.00510
 850,0.00137029,-0.06050779,-0.00439161,-0.01573111,0.00673031,0.007534
 82,0.01757710,0.00398082,0.00577989,-0.00067298,0.07410603\\-0.0000196
 1,0.00001742,-0.00000333,-0.00000226,-0.00000942,0.00000214,0.00000807
 ,0.00000158,0.00000233,0.00001596,0.00001615,0.00001419,-0.00000944,-0
 .00000272,-0.00000863,-0.00000496,-0.00001267,-0.00000066,0.00001225,-
 0.00001035,-0.00000604\\\@


 Where a calculator on the ENIAC is equipped with 18,000
 vacuum tubes and weighs 30 tons, computers inthe future
 may  have only 1,000 vacuum tubes and weigh only 1 1/2 tons.
              ---Popular Mechanics, March 1949
 Job cpu time:  0 days  0 hours  0 minutes 11.6 seconds.
 File lengths (MBytes):  RWF=      6 Int=      0 D2E=      0 Chk=      1 Scr=      1
 Normal termination of Gaussian 09 at Mon Mar  1 16:51:24 2021.
