 Entering Gaussian System, Link 0=g09
 Input=h2h3.com
 Output=h2h3.log
 Initial command:
 /home/student/g09/l1.exe /home/student/singh/Gau-15285.inp -scrdir=/home/student/singh/
 Entering Link 1 = /home/student/g09/l1.exe PID=     15287.
  
 Copyright (c) 1988,1990,1992,1993,1995,1998,2003,2009,2011,
            Gaussian, Inc.  All Rights Reserved.
  
 This is part of the Gaussian(R) 09 program.  It is based on
 the Gaussian(R) 03 system (copyright 2003, Gaussian, Inc.),
 the Gaussian(R) 98 system (copyright 1998, Gaussian, Inc.),
 the Gaussian(R) 94 system (copyright 1995, Gaussian, Inc.),
 the Gaussian 92(TM) system (copyright 1992, Gaussian, Inc.),
 the Gaussian 90(TM) system (copyright 1990, Gaussian, Inc.),
 the Gaussian 88(TM) system (copyright 1988, Gaussian, Inc.),
 the Gaussian 86(TM) system (copyright 1986, Carnegie Mellon
 University), and the Gaussian 82(TM) system (copyright 1983,
 Carnegie Mellon University). Gaussian is a federally registered
 trademark of Gaussian, Inc.
  
 This software contains proprietary and confidential information,
 including trade secrets, belonging to Gaussian, Inc.
  
 This software is provided under written license and may be
 used, copied, transmitted, or stored only in accord with that
 written license.
  
 The following legend is applicable only to US Government
 contracts under FAR:
  
                    RESTRICTED RIGHTS LEGEND
  
 Use, reproduction and disclosure by the US Government is
 subject to restrictions as set forth in subparagraphs (a)
 and (c) of the Commercial Computer Software - Restricted
 Rights clause in FAR 52.227-19.
  
 Gaussian, Inc.
 340 Quinnipiac St., Bldg. 40, Wallingford CT 06492
  
  
 ---------------------------------------------------------------
 Warning -- This program may not be used in any manner that
 competes with the business of Gaussian, Inc. or will provide
 assistance to any competitor of Gaussian, Inc.  The licensee
 of this program is prohibited from giving any competitor of
 Gaussian, Inc. access to this program.  By using this program,
 the user acknowledges that Gaussian, Inc. is engaged in the
 business of creating and licensing software in the field of
 computational chemistry and represents and warrants to the
 licensee that it is not a competitor of Gaussian, Inc. and that
 it will not use this program in any manner prohibited above.
 ---------------------------------------------------------------
  

 Cite this work as:
 Gaussian 09, Revision C.01,
 M. J. Frisch, G. W. Trucks, H. B. Schlegel, G. E. Scuseria, 
 M. A. Robb, J. R. Cheeseman, G. Scalmani, V. Barone, B. Mennucci, 
 G. A. Petersson, H. Nakatsuji, M. Caricato, X. Li, H. P. Hratchian, 
 A. F. Izmaylov, J. Bloino, G. Zheng, J. L. Sonnenberg, M. Hada, 
 M. Ehara, K. Toyota, R. Fukuda, J. Hasegawa, M. Ishida, T. Nakajima, 
 Y. Honda, O. Kitao, H. Nakai, T. Vreven, J. A. Montgomery, Jr., 
 J. E. Peralta, F. Ogliaro, M. Bearpark, J. J. Heyd, E. Brothers, 
 K. N. Kudin, V. N. Staroverov, T. Keith, R. Kobayashi, J. Normand, 
 K. Raghavachari, A. Rendell, J. C. Burant, S. S. Iyengar, J. Tomasi, 
 M. Cossi, N. Rega, J. M. Millam, M. Klene, J. E. Knox, J. B. Cross, 
 V. Bakken, C. Adamo, J. Jaramillo, R. Gomperts, R. E. Stratmann, 
 O. Yazyev, A. J. Austin, R. Cammi, C. Pomelli, J. W. Ochterski, 
 R. L. Martin, K. Morokuma, V. G. Zakrzewski, G. A. Voth, 
 P. Salvador, J. J. Dannenberg, S. Dapprich, A. D. Daniels, 
 O. Farkas, J. B. Foresman, J. V. Ortiz, J. Cioslowski, 
 and D. J. Fox, Gaussian, Inc., Wallingford CT, 2010.
 
 ******************************************
 Gaussian 09:  EM64L-G09RevC.01 23-Sep-2011
                 1-Mar-2021 
 ******************************************
 %chk=h2h3.chk
 ---------------------------------------
 # opt freq hf/6-31g** geom=connectivity
 ---------------------------------------
 1/18=20,19=15,38=1,57=2/1,3;
 2/9=110,12=2,17=6,18=5,40=1/2;
 3/5=1,6=6,7=101,11=9,16=1,25=1,30=1,71=1/1,2,3;
 4//1;
 5/5=2,38=5/2;
 6/7=2,8=2,9=2,10=2,28=1/1;
 7//1,2,3,16;
 1/18=20,19=15/3(2);
 2/9=110/2;
 99//99;
 2/9=110/2;
 3/5=1,6=6,7=101,11=9,16=1,25=1,30=1,71=1/1,2,3;
 4/5=5,16=3/1;
 5/5=2,38=5/2;
 7//1,2,3,16;
 1/18=20,19=15/3(-5);
 2/9=110/2;
 6/7=2,8=2,9=2,10=2,19=2,28=1/1;
 99/9=1/99;
 ----
 h30+
 ----
 Charge =  1 Multiplicity = 1
 Symbolic Z-Matrix:
 O                     1.23874   1.8018    0. 
 H                     2.19874   1.8018    0. 
 H                     0.91828   2.70674   0. 
 O                    -0.92342  -0.36036   0. 
 H                    -2.01078  -0.60116   1.57389 
 H                    -1.64814  -1.20197  -1.38618 
 H                     0.19404   0.75471  -0.11404 
 

 GradGradGradGradGradGradGradGradGradGradGradGradGradGradGradGradGradGrad
 Berny optimization.
 Initialization pass.
                           ----------------------------
                           !    Initial Parameters    !
                           ! (Angstroms and Degrees)  !
 --------------------------                            --------------------------
 ! Name  Definition              Value          Derivative Info.                !
 --------------------------------------------------------------------------------
 ! R1    R(1,2)                  0.96           estimate D2E/DX2                !
 ! R2    R(1,3)                  0.96           estimate D2E/DX2                !
 ! R3    R(1,7)                  1.4835         estimate D2E/DX2                !
 ! R4    R(4,5)                  1.9281         estimate D2E/DX2                !
 ! R5    R(4,6)                  1.7762         estimate D2E/DX2                !
 ! R6    R(4,7)                  1.5828         estimate D2E/DX2                !
 ! A1    A(2,1,3)              109.5            estimate D2E/DX2                !
 ! A2    A(2,1,7)              134.7654         estimate D2E/DX2                !
 ! A3    A(3,1,7)              115.4846         estimate D2E/DX2                !
 ! A4    A(5,4,6)              110.351          estimate D2E/DX2                !
 ! A5    A(5,4,7)              123.0228         estimate D2E/DX2                !
 ! A6    A(6,4,7)              124.447          estimate D2E/DX2                !
 ! A7    L(1,7,4,5,-1)         171.9132         estimate D2E/DX2                !
 ! A8    L(1,7,4,5,-2)         184.752          estimate D2E/DX2                !
 ! D1    D(2,1,4,5)            110.8237         estimate D2E/DX2                !
 ! D2    D(2,1,4,6)            -86.5875         estimate D2E/DX2                !
 ! D3    D(3,1,4,5)            -69.1763         estimate D2E/DX2                !
 ! D4    D(3,1,4,6)             93.4125         estimate D2E/DX2                !
 --------------------------------------------------------------------------------
 Trust Radius=3.00D-01 FncErr=1.00D-07 GrdErr=1.00D-07
 Number of steps in this run=     28 maximum allowed number of steps=    100.
 GradGradGradGradGradGradGradGradGradGradGradGradGradGradGradGradGradGrad

                          Input orientation:                          
 ---------------------------------------------------------------------
 Center     Atomic      Atomic             Coordinates (Angstroms)
 Number     Number       Type             X           Y           Z
 ---------------------------------------------------------------------
      1          8           0        1.238739    1.801802    0.000000
      2          1           0        2.198739    1.801802    0.000000
      3          1           0        0.918284    2.706738    0.000000
      4          8           0       -0.923423   -0.360360    0.000000
      5          1           0       -2.010783   -0.601158    1.573891
      6          1           0       -1.648140   -1.201972   -1.386183
      7          1           0        0.194044    0.754710   -0.114037
 ---------------------------------------------------------------------
                    Distance matrix (angstroms):
                    1          2          3          4          5
     1  O    0.000000
     2  H    0.960000   0.000000
     3  H    0.960000   1.567952   0.000000
     4  O    3.057759   3.797742   3.577566   0.000000
     5  H    4.337135   5.096216   4.690282   1.928073   0.000000
     6  H    4.390698   5.073720   4.877094   1.776240   3.042125
     7  H    1.483507   2.264554   2.085171   1.582757   3.090104
                    6          7
     6  H    0.000000
     7  H    2.973315   0.000000
 Stoichiometry    H5O2(1+)
 Framework group  C1[X(H5O2)]
 Deg. of freedom    15
 Full point group                 C1      NOp   1
 Largest Abelian subgroup         C1      NOp   1
 Largest concise Abelian subgroup C1      NOp   1
                         Standard orientation:                         
 ---------------------------------------------------------------------
 Center     Atomic      Atomic             Coordinates (Angstroms)
 Number     Number       Type             X           Y           Z
 ---------------------------------------------------------------------
      1          8           0       -1.572315    0.002077   -0.005652
      2          1           0       -2.263406   -0.201569   -0.640097
      3          1           0       -1.969718    0.274862    0.824565
      4          8           0        1.484903   -0.028607   -0.054343
      5          1           0        2.442053    1.643812    0.011550
      6          1           0        2.584380   -1.383155    0.279390
      7          1           0       -0.094016   -0.121703    0.004553
 ---------------------------------------------------------------------
 Rotational constants (GHZ):     84.1041080      5.1653212      4.9830527
 Standard basis: 6-31G(d,p) (6D, 7F)
 There are    55 symmetry adapted basis functions of A   symmetry.
 Integral buffers will be    131072 words long.
 Raffenetti 1 integral format.
 Two-electron integral symmetry is turned on.
    55 basis functions,    91 primitive gaussians,    55 cartesian basis functions
    10 alpha electrons       10 beta electrons
       nuclear repulsion energy        36.0187881050 Hartrees.
 NAtoms=    7 NActive=    7 NUniq=    7 SFac= 1.00D+00 NAtFMM=   60 NAOKFM=F Big=F
 One-electron integrals computed using PRISM.
 NBasis=    55 RedAO= T  NBF=    55
 NBsUse=    55 1.00D-06 NBFU=    55
 Harris functional with IExCor=  205 diagonalized for initial guess.
 ExpMin= 1.61D-01 ExpMax= 5.48D+03 ExpMxC= 8.25D+02 IAcc=1 IRadAn=         1 AccDes= 0.00D+00
 HarFok:  IExCor=  205 AccDes= 0.00D+00 IRadAn=         1 IDoV= 1
 ScaDFX=  1.000000  1.000000  1.000000  1.000000
 FoFCou: FMM=F IPFlag=           0 FMFlag=      100000 FMFlg1=           0
         NFxFlg=           0 DoJE=T BraDBF=F KetDBF=T FulRan=T
         Omega=  0.000000  0.000000  1.000000  0.000000  0.000000 ICntrl=     500 IOpCl=  0
         NMat0=    1 NMatS0=    1 NMatT0=    0 NMatD0=    1 NMtDS0=    0 NMtDT0=    0
         I1Cent=           4 NGrid=           0.
 Petite list used in FoFCou.
 Initial guess orbital symmetries:
       Occupied  (A) (A) (A) (A) (A) (A) (A) (A) (A) (A)
       Virtual   (A) (A) (A) (A) (A) (A) (A) (A) (A) (A) (A) (A)
                 (A) (A) (A) (A) (A) (A) (A) (A) (A) (A) (A) (A)
                 (A) (A) (A) (A) (A) (A) (A) (A) (A) (A) (A) (A)
                 (A) (A) (A) (A) (A) (A) (A) (A) (A)
 The electronic state of the initial guess is 1-A.
 Requested convergence on RMS density matrix=1.00D-08 within 128 cycles.
 Requested convergence on MAX density matrix=1.00D-06.
 Requested convergence on             energy=1.00D-06.
 No special actions if energy rises.
 Keep R1 ints in memory in canonical form, NReq=2034557.
 SCF Done:  E(RHF) =  -151.927508800     A.U. after   17 cycles
             Convg  =    0.5135D-08             -V/T =  2.0102

 **********************************************************************

            Population analysis using the SCF density.

 **********************************************************************

 Orbital symmetries:
       Occupied  (A) (A) (A) (A) (A) (A) (A) (A) (A) (A)
       Virtual   (A) (A) (A) (A) (A) (A) (A) (A) (A) (A) (A) (A)
                 (A) (A) (A) (A) (A) (A) (A) (A) (A) (A) (A) (A)
                 (A) (A) (A) (A) (A) (A) (A) (A) (A) (A) (A) (A)
                 (A) (A) (A) (A) (A) (A) (A) (A) (A)
 The electronic state is 1-A.
 Alpha  occ. eigenvalues --  -20.83376 -20.83113  -1.59888  -1.38822  -0.96965
 Alpha  occ. eigenvalues --   -0.88139  -0.76059  -0.68180  -0.66980  -0.63204
 Alpha virt. eigenvalues --   -0.24425  -0.15201  -0.03292   0.07461   0.11139
 Alpha virt. eigenvalues --    0.71563   0.76445   0.78347   0.78994   0.85850
 Alpha virt. eigenvalues --    0.90489   0.94515   0.96259   1.04299   1.04576
 Alpha virt. eigenvalues --    1.09532   1.14887   1.35224   1.52777   1.54368
 Alpha virt. eigenvalues --    1.58955   1.71749   1.81799   1.83237   1.88323
 Alpha virt. eigenvalues --    1.99113   2.00806   2.05487   2.06300   2.08535
 Alpha virt. eigenvalues --    2.15230   2.27753   2.31512   2.33446   2.39005
 Alpha virt. eigenvalues --    2.53944   2.56726   2.71295   2.76425   2.91508
 Alpha virt. eigenvalues --    3.33113   3.48869   3.65985   3.75226   4.15016
          Condensed to atoms (all electrons):
              1          2          3          4          5          6
     1  O    7.973941   0.315230   0.312824  -0.011182   0.000139   0.000111
     2  H    0.315230   0.269966  -0.015287   0.000254  -0.000003  -0.000004
     3  H    0.312824  -0.015287   0.286499   0.000351  -0.000008  -0.000005
     4  O   -0.011182   0.000254   0.000351   8.228030   0.144596   0.163944
     5  H    0.000139  -0.000003  -0.000008   0.144596   0.410452  -0.006556
     6  H    0.000111  -0.000004  -0.000005   0.163944  -0.006556   0.407171
     7  H    0.086815  -0.002184  -0.004482   0.126980  -0.003613  -0.003634
              7
     1  O    0.086815
     2  H   -0.002184
     3  H   -0.004482
     4  O    0.126980
     5  H   -0.003613
     6  H   -0.003634
     7  H    0.215367
 Mulliken atomic charges:
              1
     1  O   -0.677878
     2  H    0.432027
     3  H    0.420107
     4  O   -0.652974
     5  H    0.454993
     6  H    0.438973
     7  H    0.584751
 Sum of Mulliken atomic charges =   1.00000
 Mulliken charges with hydrogens summed into heavy atoms:
              1
     1  O    0.759008
     4  O    0.240992
 Sum of Mulliken charges with hydrogens summed into heavy atoms =   1.00000
 Electronic spatial extent (au):  <R**2>=            228.4415
 Charge=              1.0000 electrons
 Dipole moment (field-independent basis, Debye):
    X=              2.0555    Y=              0.6467    Z=              1.1417  Tot=              2.4387
 Quadrupole moment (field-independent basis, Debye-Ang):
   XX=             19.7071   YY=             -2.9355   ZZ=            -11.7497
   XY=              1.3548   XZ=              1.7495   YZ=              0.1306
 Traceless Quadrupole moment (field-independent basis, Debye-Ang):
   XX=             18.0331   YY=             -4.6095   ZZ=            -13.4237
   XY=              1.3548   XZ=              1.7495   YZ=              0.1306
 Octapole moment (field-independent basis, Debye-Ang**2):
  XXX=             25.6527  YYY=              4.9726  ZZZ=              1.0894  XYY=             26.9855
  XXY=              2.1893  XXZ=              4.4103  XZZ=             -8.1813  YZZ=              0.0164
  YYZ=              1.6288  XYZ=             -4.5680
 Hexadecapole moment (field-independent basis, Debye-Ang**3):
 XXXX=             10.1514 YYYY=              1.5059 ZZZZ=            -11.1948 XXXY=              2.7454
 XXXZ=             17.2308 YYYX=             11.0291 YYYZ=             -1.3643 ZZZX=             -0.9480
 ZZZY=              0.9611 XXYY=             29.3176 XXZZ=            -30.0314 YYZZ=             -6.3018
 XXYZ=             -1.8307 YYXZ=              3.7202 ZZXY=             -1.1623
 N-N= 3.601878810500D+01 E-N=-4.277879930298D+02  KE= 1.503899566345D+02
 Calling FoFJK, ICntrl=      2127 FMM=F ISym2X=0 I1Cent= 0 IOpClX= 0 NMat=1 NMatS=1 NMatT=0.
 ***** Axes restored to original set *****
 -------------------------------------------------------------------
 Center     Atomic                   Forces (Hartrees/Bohr)
 Number     Number              X              Y              Z
 -------------------------------------------------------------------
      1        8          -0.037768684   -0.015744346   -0.003497689
      2        1          -0.011930007   -0.010190526   -0.001179089
      3        1           0.003188696   -0.012010626   -0.000296659
      4        8          -0.043822684   -0.013545692   -0.010880644
      5        1           0.052356319    0.012558635   -0.075796238
      6        1           0.043775310    0.051820899    0.081783318
      7        1          -0.005798949   -0.012888344    0.009867002
 -------------------------------------------------------------------
 Cartesian Forces:  Max     0.081783318 RMS     0.034185927

 GradGradGradGradGradGradGradGradGradGradGradGradGradGradGradGradGradGrad
 Berny optimization.
 Internal  Forces:  Max     0.106238142 RMS     0.040413041
 Search for a local minimum.
 Step number   1 out of a maximum of   28
 All quantities printed in internal units (Hartrees-Bohrs-Radians)
 Mixed Optimization -- RFO/linear search
 Second derivative matrix not updated -- first step.
 The second derivative matrix:
                          R1        R2        R3        R4        R5
           R1           0.55473
           R2           0.00000   0.55473
           R3           0.00000   0.00000   0.11771
           R4           0.00000   0.00000   0.00000   0.04862
           R5           0.00000   0.00000   0.00000   0.00000   0.06393
           R6           0.00000   0.00000   0.00000   0.00000   0.00000
           A1           0.00000   0.00000   0.00000   0.00000   0.00000
           A2           0.00000   0.00000   0.00000   0.00000   0.00000
           A3           0.00000   0.00000   0.00000   0.00000   0.00000
           A4           0.00000   0.00000   0.00000   0.00000   0.00000
           A5           0.00000   0.00000   0.00000   0.00000   0.00000
           A6           0.00000   0.00000   0.00000   0.00000   0.00000
           A7           0.00000   0.00000   0.00000   0.00000   0.00000
           A8           0.00000   0.00000   0.00000   0.00000   0.00000
           D1           0.00000   0.00000   0.00000   0.00000   0.00000
           D2           0.00000   0.00000   0.00000   0.00000   0.00000
           D3           0.00000   0.00000   0.00000   0.00000   0.00000
           D4           0.00000   0.00000   0.00000   0.00000   0.00000
                          R6        A1        A2        A3        A4
           R6           0.09435
           A1           0.00000   0.16000
           A2           0.00000   0.00000   0.16000
           A3           0.00000   0.00000   0.00000   0.16000
           A4           0.00000   0.00000   0.00000   0.00000   0.16000
           A5           0.00000   0.00000   0.00000   0.00000   0.00000
           A6           0.00000   0.00000   0.00000   0.00000   0.00000
           A7           0.00000   0.00000   0.00000   0.00000   0.00000
           A8           0.00000   0.00000   0.00000   0.00000   0.00000
           D1           0.00000   0.00000   0.00000   0.00000   0.00000
           D2           0.00000   0.00000   0.00000   0.00000   0.00000
           D3           0.00000   0.00000   0.00000   0.00000   0.00000
           D4           0.00000   0.00000   0.00000   0.00000   0.00000
                          A5        A6        A7        A8        D1
           A5           0.16000
           A6           0.00000   0.16000
           A7           0.00000   0.00000   0.00230
           A8           0.00000   0.00000   0.00000   0.00230
           D1           0.00000   0.00000   0.00000   0.00000   0.00230
           D2           0.00000   0.00000   0.00000   0.00000   0.00000
           D3           0.00000   0.00000   0.00000   0.00000   0.00000
           D4           0.00000   0.00000   0.00000   0.00000   0.00000
                          D2        D3        D4
           D2           0.00230
           D3           0.00000   0.00230
           D4           0.00000   0.00000   0.00230
 ITU=  0
     Eigenvalues ---    0.00230   0.00230   0.00230   0.00278   0.00541
     Eigenvalues ---    0.04862   0.06393   0.09435   0.11771   0.16000
     Eigenvalues ---    0.16000   0.16000   0.16000   0.55473   0.55473
 RFO step:  Lambda=-1.39500441D-01 EMin= 2.30000000D-03
 Linear search not attempted -- first point.
 Maximum step size (   0.300) exceeded in Quadratic search.
    -- Step size scaled by   0.366
 Iteration  1 RMS(Cart)=  0.09734208 RMS(Int)=  0.00012935
 Iteration  2 RMS(Cart)=  0.00022624 RMS(Int)=  0.00000362
 Iteration  3 RMS(Cart)=  0.00000005 RMS(Int)=  0.00000362
 Variable       Old X    -DE/DX   Delta X   Delta X   Delta X     New X
                                 (Linear)    (Quad)   (Total)
    R1        1.81414  -0.01193   0.00000  -0.00629  -0.00629   1.80785
    R2        1.81414  -0.01239   0.00000  -0.00653  -0.00653   1.80761
    R3        2.80342  -0.05992   0.00000  -0.08524  -0.08524   2.71818
    R4        3.64353  -0.09297   0.00000  -0.18081  -0.18081   3.46273
    R5        3.35661  -0.10624   0.00000  -0.19107  -0.19107   3.16553
    R6        2.99098  -0.07309   0.00000  -0.11436  -0.11436   2.87662
    A1        1.91114   0.00683   0.00000   0.00838   0.00837   1.91951
    A2        2.35210  -0.01173   0.00000  -0.01429  -0.01429   2.33781
    A3        2.01559   0.00503   0.00000   0.00618   0.00617   2.02176
    A4        1.92599   0.00261   0.00000   0.00290   0.00289   1.92888
    A5        2.14715  -0.00007   0.00000  -0.00037  -0.00037   2.14678
    A6        2.17201  -0.00330   0.00000  -0.00431  -0.00432   2.16769
    A7        3.00045   0.00222   0.00000   0.00572   0.00572   3.00617
    A8        3.22453   0.00035   0.00000   0.00084   0.00084   3.22537
    D1        1.93424   0.00159   0.00000   0.00403   0.00403   1.93827
    D2       -1.51124  -0.00097   0.00000  -0.00244  -0.00244  -1.51367
    D3       -1.20735   0.00084   0.00000   0.00210   0.00210  -1.20525
    D4        1.63035  -0.00171   0.00000  -0.00436  -0.00436   1.62600
         Item               Value     Threshold  Converged?
 Maximum Force            0.106238     0.000450     NO 
 RMS     Force            0.040413     0.000300     NO 
 Maximum Displacement     0.159010     0.001800     NO 
 RMS     Displacement     0.097332     0.001200     NO 
 Predicted change in Energy=-4.798329D-02
 GradGradGradGradGradGradGradGradGradGradGradGradGradGradGradGradGradGrad

                          Input orientation:                          
 ---------------------------------------------------------------------
 Center     Atomic      Atomic             Coordinates (Angstroms)
 Number     Number       Type             X           Y           Z
 ---------------------------------------------------------------------
      1          8           0        1.187372    1.759257   -0.001245
      2          1           0        2.143948    1.745741   -0.002729
      3          1           0        0.873262    2.662757   -0.002406
      4          8           0       -0.898114   -0.331433    0.001974
      5          1           0       -1.935097   -0.560225    1.495289
      6          1           0       -1.578437   -1.117827   -1.311342
      7          1           0        0.174526    0.743291   -0.105869
 ---------------------------------------------------------------------
                    Distance matrix (angstroms):
                    1          2          3          4          5
     1  O    0.000000
     2  H    0.956673   0.000000
     3  H    0.956546   1.567023   0.000000
     4  O    2.953006   3.683587   3.478932   0.000000
     5  H    4.167664   4.919365   4.529634   1.832395   0.000000
     6  H    4.200436   4.875309   4.692223   1.675128   2.883627
     7  H    1.438399   2.212277   2.045309   1.522241   2.951842
                    6          7
     6  H    0.000000
     7  H    2.826624   0.000000
 Stoichiometry    H5O2(1+)
 Framework group  C1[X(H5O2)]
 Deg. of freedom    15
 Full point group                 C1      NOp   1
 Largest Abelian subgroup         C1      NOp   1
 Largest concise Abelian subgroup C1      NOp   1
                         Standard orientation:                         
 ---------------------------------------------------------------------
 Center     Atomic      Atomic             Coordinates (Angstroms)
 Number     Number       Type             X           Y           Z
 ---------------------------------------------------------------------
      1          8           0       -1.515209    0.002921   -0.005057
      2          1           0       -2.193842   -0.211425   -0.644382
      3          1           0       -1.916980    0.283442    0.816446
      4          8           0        1.437249   -0.029008   -0.052168
      5          1           0        2.351297    1.558414   -0.004436
      6          1           0        2.464760   -1.308471    0.284355
      7          1           0       -0.081552   -0.113266    0.005820
 ---------------------------------------------------------------------
 Rotational constants (GHZ):     91.3912187      5.5402671      5.3572608
 Standard basis: 6-31G(d,p) (6D, 7F)
 There are    55 symmetry adapted basis functions of A   symmetry.
 Integral buffers will be    131072 words long.
 Raffenetti 1 integral format.
 Two-electron integral symmetry is turned on.
    55 basis functions,    91 primitive gaussians,    55 cartesian basis functions
    10 alpha electrons       10 beta electrons
       nuclear repulsion energy        37.1024777952 Hartrees.
 NAtoms=    7 NActive=    7 NUniq=    7 SFac= 1.00D+00 NAtFMM=   60 NAOKFM=F Big=F
 One-electron integrals computed using PRISM.
 NBasis=    55 RedAO= T  NBF=    55
 NBsUse=    55 1.00D-06 NBFU=    55
 Initial guess read from the read-write file.
 B after Tr=     0.000000    0.000000    0.000000
         Rot=    1.000000    0.000000    0.000000    0.000000 Ang=   0.00 deg.
 Initial guess orbital symmetries:
       Occupied  (A) (A) (A) (A) (A) (A) (A) (A) (A) (A)
       Virtual   (A) (A) (A) (A) (A) (A) (A) (A) (A) (A) (A) (A)
                 (A) (A) (A) (A) (A) (A) (A) (A) (A) (A) (A) (A)
                 (A) (A) (A) (A) (A) (A) (A) (A) (A) (A) (A) (A)
                 (A) (A) (A) (A) (A) (A) (A) (A) (A)
 Harris functional with IExCor=  205 diagonalized for initial guess.
 ExpMin= 1.61D-01 ExpMax= 5.48D+03 ExpMxC= 8.25D+02 IAcc=1 IRadAn=         1 AccDes= 0.00D+00
 HarFok:  IExCor=  205 AccDes= 0.00D+00 IRadAn=         1 IDoV= 1
 ScaDFX=  1.000000  1.000000  1.000000  1.000000
 FoFCou: FMM=F IPFlag=           0 FMFlag=      100000 FMFlg1=           0
         NFxFlg=           0 DoJE=T BraDBF=F KetDBF=T FulRan=T
         Omega=  0.000000  0.000000  1.000000  0.000000  0.000000 ICntrl=     500 IOpCl=  0
         NMat0=    1 NMatS0=    1 NMatT0=    0 NMatD0=    1 NMtDS0=    0 NMtDT0=    0
         I1Cent=           4 NGrid=           0.
 Petite list used in FoFCou.
 Requested convergence on RMS density matrix=1.00D-08 within 128 cycles.
 Requested convergence on MAX density matrix=1.00D-06.
 Requested convergence on             energy=1.00D-06.
 No special actions if energy rises.
 Keep R1 ints in memory in canonical form, NReq=2034557.
 SCF Done:  E(RHF) =  -151.980237276     A.U. after   14 cycles
             Convg  =    0.8713D-08             -V/T =  2.0102
 Calling FoFJK, ICntrl=      2127 FMM=F ISym2X=0 I1Cent= 0 IOpClX= 0 NMat=1 NMatS=1 NMatT=0.
 ***** Axes restored to original set *****
 -------------------------------------------------------------------
 Center     Atomic                   Forces (Hartrees/Bohr)
 Number     Number              X              Y              Z
 -------------------------------------------------------------------
      1        8          -0.039817563   -0.019651591   -0.003413926
      2        1          -0.008530435   -0.009619493   -0.001086998
      3        1           0.002168543   -0.008297125   -0.000302390
      4        8          -0.052288503   -0.019840651   -0.011907155
      5        1           0.057099868    0.013621342   -0.083322785
      6        1           0.047014022    0.056176492    0.090390056
      7        1          -0.005645931   -0.012388975    0.009643197
 -------------------------------------------------------------------
 Cartesian Forces:  Max     0.090390056 RMS     0.037604695

 GradGradGradGradGradGradGradGradGradGradGradGradGradGradGradGradGradGrad
 Berny optimization.
 Using GEDIIS/GDIIS optimizer.
 Internal  Forces:  Max     0.116332772 RMS     0.042828918
 Search for a local minimum.
 Step number   2 out of a maximum of   28
 All quantities printed in internal units (Hartrees-Bohrs-Radians)
 Mixed Optimization -- RFO/linear search
 Update second derivatives using D2CorX and points    1    2
 DE= -5.27D-02 DEPred=-4.80D-02 R= 1.10D+00
 SS=  1.41D+00  RLast= 3.00D-01 DXNew= 5.0454D-01 9.0023D-01
 Trust test= 1.10D+00 RLast= 3.00D-01 DXMaxT set to 5.05D-01
 The second derivative matrix:
                          R1        R2        R3        R4        R5
           R1           0.54899
           R2          -0.00614   0.54818
           R3          -0.00628  -0.00654   0.10116
           R4           0.00447   0.00508  -0.01304   0.01198
           R5           0.00373   0.00437  -0.01848  -0.04464   0.00898
           R6          -0.00717  -0.00749  -0.01786  -0.01295  -0.01866
           A1           0.00129   0.00136   0.00228   0.00060   0.00118
           A2          -0.00172  -0.00181  -0.00382  -0.00223  -0.00338
           A3           0.00046   0.00047   0.00161   0.00169   0.00228
           A4           0.00166   0.00179   0.00096  -0.00286  -0.00306
           A5          -0.00044  -0.00047  -0.00016   0.00093   0.00103
           A6          -0.00118  -0.00126  -0.00125   0.00099   0.00086
           A7          -0.00030  -0.00032  -0.00002   0.00079   0.00089
           A8          -0.00036  -0.00039  -0.00005   0.00092   0.00104
           D1          -0.00043  -0.00047  -0.00005   0.00112   0.00127
           D2           0.00045   0.00049   0.00006  -0.00115  -0.00130
           D3          -0.00043  -0.00047  -0.00006   0.00110   0.00124
           D4           0.00045   0.00049   0.00005  -0.00117  -0.00133
                          R6        A1        A2        A3        A4
           R6           0.07503
           A1           0.00251   0.15963
           A2          -0.00415   0.00056   0.15910
           A3           0.00171  -0.00020   0.00036   0.15984
           A4           0.00119  -0.00030   0.00033  -0.00003   0.15945
           A5          -0.00021   0.00007  -0.00007   0.00000   0.00015
           A6          -0.00143   0.00026  -0.00035   0.00009   0.00034
           A7          -0.00006   0.00004  -0.00003  -0.00001   0.00011
           A8          -0.00010   0.00005  -0.00004  -0.00001   0.00014
           D1          -0.00010   0.00006  -0.00005  -0.00001   0.00016
           D2           0.00011  -0.00006   0.00005   0.00001  -0.00017
           D3          -0.00011   0.00006  -0.00005  -0.00001   0.00016
           D4           0.00011  -0.00006   0.00005   0.00001  -0.00017
                          A5        A6        A7        A8        D1
           A5           0.15996
           A6          -0.00009   0.15976
           A7          -0.00003  -0.00006   0.00228
           A8          -0.00004  -0.00008  -0.00003   0.00226
           D1          -0.00005  -0.00009  -0.00004  -0.00004   0.00225
           D2           0.00005   0.00009   0.00004   0.00004   0.00005
           D3          -0.00005  -0.00009  -0.00004  -0.00004  -0.00005
           D4           0.00005   0.00009   0.00004   0.00004   0.00005
                          D2        D3        D4
           D2           0.00225
           D3           0.00005   0.00225
           D4          -0.00006   0.00005   0.00224
 ITU=  1  0
 Use linear search instead of GDIIS.
     Eigenvalues ---   -0.04376   0.00230   0.00230   0.00230   0.00275
     Eigenvalues ---    0.00556   0.05399   0.07434   0.11089   0.15877
     Eigenvalues ---    0.15976   0.16000   0.16000   0.54305   0.55473
 RFO step:  Lambda=-2.01634596D-01 EMin=-4.37564948D-02
 Skip linear search -- no minimum in search direction.
 Maximum step size (   0.505) exceeded in Quadratic search.
    -- Step size scaled by   0.496
 Iteration  1 RMS(Cart)=  0.12689594 RMS(Int)=  0.04060989
 Iteration  2 RMS(Cart)=  0.03849475 RMS(Int)=  0.00002152
 Iteration  3 RMS(Cart)=  0.00001764 RMS(Int)=  0.00000956
 Iteration  4 RMS(Cart)=  0.00000000 RMS(Int)=  0.00000956
 Variable       Old X    -DE/DX   Delta X   Delta X   Delta X     New X
                                 (Linear)    (Quad)   (Total)
    R1        1.80785  -0.00839   0.00000  -0.00499  -0.00499   1.80286
    R2        1.80761  -0.00855   0.00000  -0.00470  -0.00470   1.80291
    R3        2.71818  -0.05940   0.00000  -0.13705  -0.13705   2.58113
    R4        3.46273  -0.10191   0.00000  -0.30176  -0.30176   3.16096
    R5        3.16553  -0.11633   0.00000  -0.33892  -0.33892   2.82661
    R6        2.87662  -0.07213   0.00000  -0.16991  -0.16991   2.70671
    A1        1.91951   0.00633   0.00000   0.01219   0.01219   1.93170
    A2        2.33781  -0.01133   0.00000  -0.02351  -0.02352   2.31429
    A3        2.02176   0.00513   0.00000   0.01169   0.01168   2.03344
    A4        1.92888   0.00129   0.00000  -0.00209  -0.00211   1.92676
    A5        2.14678   0.00030   0.00000   0.00185   0.00183   2.14860
    A6        2.16769  -0.00256   0.00000  -0.00317  -0.00319   2.16450
    A7        3.00617   0.00251   0.00000   0.00771   0.00771   3.01388
    A8        3.22537   0.00069   0.00000   0.00356   0.00356   3.22893
    D1        1.93827   0.00200   0.00000   0.00717   0.00717   1.94543
    D2       -1.51367  -0.00140   0.00000  -0.00575  -0.00575  -1.51942
    D3       -1.20525   0.00125   0.00000   0.00529   0.00529  -1.19996
    D4        1.62600  -0.00215   0.00000  -0.00763  -0.00763   1.61837
         Item               Value     Threshold  Converged?
 Maximum Force            0.116333     0.000450     NO 
 RMS     Force            0.042829     0.000300     NO 
 Maximum Displacement     0.257259     0.001800     NO 
 RMS     Displacement     0.157667     0.001200     NO 
 Predicted change in Energy=-9.621238D-02
 GradGradGradGradGradGradGradGradGradGradGradGradGradGradGradGradGradGrad

                          Input orientation:                          
 ---------------------------------------------------------------------
 Center     Atomic      Atomic             Coordinates (Angstroms)
 Number     Number       Type             X           Y           Z
 ---------------------------------------------------------------------
      1          8           0        1.106184    1.692115   -0.003496
      2          1           0        2.059547    1.656489   -0.006767
      3          1           0        0.802850    2.596666   -0.005227
      4          8           0       -0.861091   -0.288577    0.002182
      5          1           0       -1.815999   -0.499948    1.359176
      6          1           0       -1.468654   -0.981691   -1.175872
      7          1           0        0.144623    0.726508   -0.096324
 ---------------------------------------------------------------------
                    Distance matrix (angstroms):
                    1          2          3          4          5
     1  O    0.000000
     2  H    0.954034   0.000000
     3  H    0.954058   1.569465   0.000000
     4  O    2.791656   3.509058   3.330673   0.000000
     5  H    3.898867   4.640676   4.278899   1.672710   0.000000
     6  H    3.892749   4.557959   4.397133   1.495777   2.603688
     7  H    1.365874   2.130684   1.984704   1.432328   2.732529
                    6          7
     6  H    0.000000
     7  H    2.585736   0.000000
 Stoichiometry    H5O2(1+)
 Framework group  C1[X(H5O2)]
 Deg. of freedom    15
 Full point group                 C1      NOp   1
 Largest Abelian subgroup         C1      NOp   1
 Largest concise Abelian subgroup C1      NOp   1
                         Standard orientation:                         
 ---------------------------------------------------------------------
 Center     Atomic      Atomic             Coordinates (Angstroms)
 Number     Number       Type             X           Y           Z
 ---------------------------------------------------------------------
      1          8           0       -1.426380    0.004513   -0.004395
      2          1           0       -2.086199   -0.236082   -0.650098
      3          1           0       -1.838068    0.309581    0.800386
      4          8           0        1.364708   -0.031529   -0.047699
      5          1           0        2.209235    1.412325   -0.043575
      6          1           0        2.273140   -1.167774    0.300221
      7          1           0       -0.064733   -0.101918    0.009817
 ---------------------------------------------------------------------
 Rotational constants (GHZ):    106.2948636      6.2050834      6.0298303
 Standard basis: 6-31G(d,p) (6D, 7F)
 There are    55 symmetry adapted basis functions of A   symmetry.
 Integral buffers will be    131072 words long.
 Raffenetti 1 integral format.
 Two-electron integral symmetry is turned on.
    55 basis functions,    91 primitive gaussians,    55 cartesian basis functions
    10 alpha electrons       10 beta electrons
       nuclear repulsion energy        39.0010981882 Hartrees.
 NAtoms=    7 NActive=    7 NUniq=    7 SFac= 1.00D+00 NAtFMM=   60 NAOKFM=F Big=F
 One-electron integrals computed using PRISM.
 NBasis=    55 RedAO= T  NBF=    55
 NBsUse=    55 1.00D-06 NBFU=    55
 Initial guess read from the read-write file.
 B after Tr=     0.000000    0.000000    0.000000
         Rot=    1.000000    0.000000    0.000000    0.000000 Ang=   0.00 deg.
 Initial guess orbital symmetries:
       Occupied  (A) (A) (A) (A) (A) (A) (A) (A) (A) (A)
       Virtual   (A) (A) (A) (A) (A) (A) (A) (A) (A) (A) (A) (A)
                 (A) (A) (A) (A) (A) (A) (A) (A) (A) (A) (A) (A)
                 (A) (A) (A) (A) (A) (A) (A) (A) (A) (A) (A) (A)
                 (A) (A) (A) (A) (A) (A) (A) (A) (A)
 Harris functional with IExCor=  205 diagonalized for initial guess.
 ExpMin= 1.61D-01 ExpMax= 5.48D+03 ExpMxC= 8.25D+02 IAcc=1 IRadAn=         1 AccDes= 0.00D+00
 HarFok:  IExCor=  205 AccDes= 0.00D+00 IRadAn=         1 IDoV= 1
 ScaDFX=  1.000000  1.000000  1.000000  1.000000
 FoFCou: FMM=F IPFlag=           0 FMFlag=      100000 FMFlg1=           0
         NFxFlg=           0 DoJE=T BraDBF=F KetDBF=T FulRan=T
         Omega=  0.000000  0.000000  1.000000  0.000000  0.000000 ICntrl=     500 IOpCl=  0
         NMat0=    1 NMatS0=    1 NMatT0=    0 NMatD0=    1 NMtDS0=    0 NMtDT0=    0
         I1Cent=           4 NGrid=           0.
 Petite list used in FoFCou.
 Requested convergence on RMS density matrix=1.00D-08 within 128 cycles.
 Requested convergence on MAX density matrix=1.00D-06.
 Requested convergence on             energy=1.00D-06.
 No special actions if energy rises.
 Keep R1 ints in memory in canonical form, NReq=2034557.
 SCF Done:  E(RHF) =  -152.075984310     A.U. after   14 cycles
             Convg  =    0.4501D-08             -V/T =  2.0100
 Calling FoFJK, ICntrl=      2127 FMM=F ISym2X=0 I1Cent= 0 IOpClX= 0 NMat=1 NMatS=1 NMatT=0.
 ***** Axes restored to original set *****
 -------------------------------------------------------------------
 Center     Atomic                   Forces (Hartrees/Bohr)
 Number     Number              X              Y              Z
 -------------------------------------------------------------------
      1        8          -0.039454585   -0.021148124   -0.003261282
      2        1          -0.005844035   -0.008576044   -0.000963327
      3        1           0.001686817   -0.005347652   -0.000340864
      4        8          -0.070215913   -0.032827893   -0.013167121
      5        1           0.065657903    0.015574136   -0.095899860
      6        1           0.052686044    0.063120221    0.104335299
      7        1          -0.004516231   -0.010794644    0.009297154
 -------------------------------------------------------------------
 Cartesian Forces:  Max     0.104335299 RMS     0.043619317

 GradGradGradGradGradGradGradGradGradGradGradGradGradGradGradGradGradGrad
 Berny optimization.
 Using GEDIIS/GDIIS optimizer.
 Internal  Forces:  Max     0.132822018 RMS     0.046667842
 Search for a local minimum.
 Step number   3 out of a maximum of   28
 All quantities printed in internal units (Hartrees-Bohrs-Radians)
 Mixed Optimization -- RFO/linear search
 Update second derivatives using D2CorX and points    2    3
 DE= -9.57D-02 DEPred=-9.62D-02 R= 9.95D-01
 SS=  1.41D+00  RLast= 5.05D-01 DXNew= 8.4853D-01 1.5141D+00
 Trust test= 9.95D-01 RLast= 5.05D-01 DXMaxT set to 8.49D-01
 The second derivative matrix:
                          R1        R2        R3        R4        R5
           R1           0.54906
           R2          -0.00605   0.54829
           R3          -0.00732  -0.00761   0.09969
           R4           0.00460   0.00511  -0.00740   0.00903
           R5           0.00403   0.00456  -0.01239  -0.04858   0.00394
           R6          -0.00903  -0.00939  -0.02013  -0.00308  -0.00805
           A1           0.00141   0.00148   0.00263  -0.00012   0.00038
           A2          -0.00179  -0.00187  -0.00413  -0.00179  -0.00286
           A3           0.00040   0.00041   0.00156   0.00197   0.00257
           A4           0.00188   0.00201   0.00167  -0.00423  -0.00458
           A5          -0.00049  -0.00052  -0.00032   0.00124   0.00138
           A6          -0.00138  -0.00146  -0.00173   0.00214   0.00213
           A7          -0.00036  -0.00038  -0.00028   0.00118   0.00134
           A8          -0.00027  -0.00030  -0.00015   0.00053   0.00064
           D1          -0.00033  -0.00036  -0.00018   0.00068   0.00083
           D2           0.00035   0.00038   0.00019  -0.00072  -0.00087
           D3          -0.00033  -0.00036  -0.00018   0.00066   0.00080
           D4           0.00035   0.00038   0.00019  -0.00075  -0.00090
                          R6        A1        A2        A3        A4
           R6           0.07157
           A1           0.00310   0.15957
           A2          -0.00469   0.00061   0.15906
           A3           0.00165  -0.00019   0.00034   0.15984
           A4           0.00236  -0.00042   0.00043  -0.00001   0.15920
           A5          -0.00048   0.00010  -0.00009  -0.00001   0.00021
           A6          -0.00222   0.00035  -0.00042   0.00007   0.00052
           A7          -0.00049   0.00008  -0.00006  -0.00002   0.00019
           A8          -0.00029   0.00005  -0.00003  -0.00002   0.00013
           D1          -0.00035   0.00006  -0.00003  -0.00002   0.00016
           D2           0.00038  -0.00006   0.00004   0.00002  -0.00016
           D3          -0.00035   0.00006  -0.00003  -0.00002   0.00015
           D4           0.00038  -0.00006   0.00004   0.00002  -0.00017
                          A5        A6        A7        A8        D1
           A5           0.15994
           A6          -0.00013   0.15963
           A7          -0.00005  -0.00012   0.00225
           A8          -0.00004  -0.00008  -0.00002   0.00229
           D1          -0.00005  -0.00010  -0.00003  -0.00001   0.00228
           D2           0.00005   0.00010   0.00003   0.00001   0.00002
           D3          -0.00004  -0.00010  -0.00003  -0.00001  -0.00002
           D4           0.00005   0.00010   0.00003   0.00001   0.00002
                          D2        D3        D4
           D2           0.00228
           D3           0.00002   0.00228
           D4          -0.00002   0.00002   0.00228
 ITU=  1  1  0
 Use linear search instead of GDIIS.
     Eigenvalues ---   -0.04502   0.00230   0.00230   0.00230   0.00271
     Eigenvalues ---    0.00586   0.05284   0.06369   0.11061   0.15867
     Eigenvalues ---    0.15976   0.16000   0.16000   0.54341   0.55473
 RFO step:  Lambda=-2.17682446D-01 EMin=-4.50156701D-02
 Skip linear search -- no minimum in search direction.
 Maximum step size (   0.849) exceeded in Quadratic search.
    -- Step size scaled by   0.827
 Iteration  1 RMS(Cart)=  0.14785245 RMS(Int)=  0.12092444
 Iteration  2 RMS(Cart)=  0.06624004 RMS(Int)=  0.05469593
 Iteration  3 RMS(Cart)=  0.05174223 RMS(Int)=  0.00007813
 Iteration  4 RMS(Cart)=  0.00007361 RMS(Int)=  0.00001329
 Iteration  5 RMS(Cart)=  0.00000001 RMS(Int)=  0.00001329
 Variable       Old X    -DE/DX   Delta X   Delta X   Delta X     New X
                                 (Linear)    (Quad)   (Total)
    R1        1.80286  -0.00552   0.00000  -0.00433  -0.00433   1.79853
    R2        1.80291  -0.00561   0.00000  -0.00387  -0.00387   1.79904
    R3        2.58113  -0.05581   0.00000  -0.19175  -0.19175   2.38938
    R4        3.16096  -0.11724   0.00000  -0.52905  -0.52905   2.63192
    R5        2.82661  -0.13282   0.00000  -0.59260  -0.59260   2.23401
    R6        2.70671  -0.06663   0.00000  -0.22339  -0.22339   2.48332
    A1        1.93170   0.00540   0.00000   0.01544   0.01543   1.94712
    A2        2.31429  -0.01049   0.00000  -0.03433  -0.03434   2.27994
    A3        2.03344   0.00523   0.00000   0.01957   0.01955   2.05299
    A4        1.92676  -0.00054   0.00000  -0.01097  -0.01100   1.91577
    A5        2.14860   0.00072   0.00000   0.00488   0.00486   2.15346
    A6        2.16450  -0.00133   0.00000   0.00091   0.00088   2.16538
    A7        3.01388   0.00318   0.00000   0.01571   0.01571   3.02959
    A8        3.22893   0.00099   0.00000   0.00542   0.00542   3.23435
    D1        1.94543   0.00238   0.00000   0.01119   0.01119   1.95662
    D2       -1.51942  -0.00180   0.00000  -0.00913  -0.00913  -1.52855
    D3       -1.19996   0.00162   0.00000   0.00823   0.00823  -1.19173
    D4        1.61837  -0.00257   0.00000  -0.01209  -0.01208   1.60628
         Item               Value     Threshold  Converged?
 Maximum Force            0.132822     0.000450     NO 
 RMS     Force            0.046668     0.000300     NO 
 Maximum Displacement     0.455611     0.001800     NO 
 RMS     Displacement     0.247489     0.001200     NO 
 Predicted change in Energy=-1.813393D-01
 GradGradGradGradGradGradGradGradGradGradGradGradGradGradGradGradGradGrad

                          Input orientation:                          
 ---------------------------------------------------------------------
 Center     Atomic      Atomic             Coordinates (Angstroms)
 Number     Number       Type             X           Y           Z
 ---------------------------------------------------------------------
      1          8           0        0.988169    1.595023   -0.007089
      2          1           0        1.937373    1.525846   -0.013147
      3          1           0        0.703559    2.503490   -0.009156
      4          8           0       -0.822029   -0.234458    0.000480
      5          1           0       -1.630805   -0.417665    1.119439
      6          1           0       -1.305794   -0.771892   -0.934773
      7          1           0        0.096987    0.701218   -0.082083
 ---------------------------------------------------------------------
                    Distance matrix (angstroms):
                    1          2          3          4          5
     1  O    0.000000
     2  H    0.951741   0.000000
     3  H    0.952009   1.574199   0.000000
     4  O    2.573688   3.273096   3.134306   0.000000
     5  H    3.489843   4.218042   3.905909   1.392750   0.000000
     6  H    3.424201   4.080090   3.952518   1.182186   2.109714
     7  H    1.264403   2.017867   1.903006   1.314114   2.383446
                    6          7
     6  H    0.000000
     7  H    2.205659   0.000000
 Stoichiometry    H5O2(1+)
 Framework group  C1[X(H5O2)]
 Deg. of freedom    15
 Full point group                 C1      NOp   1
 Largest Abelian subgroup         C1      NOp   1
 Largest concise Abelian subgroup C1      NOp   1
                         Standard orientation:                         
 ---------------------------------------------------------------------
 Center     Atomic      Atomic             Coordinates (Angstroms)
 Number     Number       Type             X           Y           Z
 ---------------------------------------------------------------------
      1          8           0       -1.302933    0.006023   -0.004638
      2          1           0       -1.934710   -0.322915   -0.635882
      3          1           0       -1.732856    0.403092    0.746243
      4          8           0        1.270203   -0.037194   -0.035842
      5          1           0        1.991021    1.147206   -0.167631
      6          1           0        1.980282   -0.895373    0.360241
      7          1           0       -0.041900   -0.082638    0.020869
 ---------------------------------------------------------------------
 Rotational constants (GHZ):    141.4403764      7.3397241      7.2054285
 Standard basis: 6-31G(d,p) (6D, 7F)
 There are    55 symmetry adapted basis functions of A   symmetry.
 Integral buffers will be    131072 words long.
 Raffenetti 1 integral format.
 Two-electron integral symmetry is turned on.
    55 basis functions,    91 primitive gaussians,    55 cartesian basis functions
    10 alpha electrons       10 beta electrons
       nuclear repulsion energy        42.4514699354 Hartrees.
 NAtoms=    7 NActive=    7 NUniq=    7 SFac= 1.00D+00 NAtFMM=   60 NAOKFM=F Big=F
 One-electron integrals computed using PRISM.
 NBasis=    55 RedAO= T  NBF=    55
 NBsUse=    55 1.00D-06 NBFU=    55
 Initial guess read from the read-write file.
 B after Tr=     0.000000    0.000000    0.000000
         Rot=    1.000000    0.000000    0.000000    0.000000 Ang=   0.00 deg.
 Initial guess orbital symmetries:
       Occupied  (A) (A) (A) (A) (A) (A) (A) (A) (A) (A)
       Virtual   (A) (A) (A) (A) (A) (A) (A) (A) (A) (A) (A) (A)
                 (A) (A) (A) (A) (A) (A) (A) (A) (A) (A) (A) (A)
                 (A) (A) (A) (A) (A) (A) (A) (A) (A) (A) (A) (A)
                 (A) (A) (A) (A) (A) (A) (A) (A) (A)
 Harris functional with IExCor=  205 diagonalized for initial guess.
 ExpMin= 1.61D-01 ExpMax= 5.48D+03 ExpMxC= 8.25D+02 IAcc=1 IRadAn=         1 AccDes= 0.00D+00
 HarFok:  IExCor=  205 AccDes= 0.00D+00 IRadAn=         1 IDoV= 1
 ScaDFX=  1.000000  1.000000  1.000000  1.000000
 FoFCou: FMM=F IPFlag=           0 FMFlag=      100000 FMFlg1=           0
         NFxFlg=           0 DoJE=T BraDBF=F KetDBF=T FulRan=T
         Omega=  0.000000  0.000000  1.000000  0.000000  0.000000 ICntrl=     500 IOpCl=  0
         NMat0=    1 NMatS0=    1 NMatT0=    0 NMatD0=    1 NMtDS0=    0 NMtDT0=    0
         I1Cent=           4 NGrid=           0.
 Petite list used in FoFCou.
 Requested convergence on RMS density matrix=1.00D-08 within 128 cycles.
 Requested convergence on MAX density matrix=1.00D-06.
 Requested convergence on             energy=1.00D-06.
 No special actions if energy rises.
 Keep R1 ints in memory in canonical form, NReq=2034557.
 SCF Done:  E(RHF) =  -152.248990020     A.U. after   13 cycles
             Convg  =    0.6648D-08             -V/T =  2.0085
 Calling FoFJK, ICntrl=      2127 FMM=F ISym2X=0 I1Cent= 0 IOpClX= 0 NMat=1 NMatS=1 NMatT=0.
 ***** Axes restored to original set *****
 -------------------------------------------------------------------
 Center     Atomic                   Forces (Hartrees/Bohr)
 Number     Number              X              Y              Z
 -------------------------------------------------------------------
      1        8          -0.030764427   -0.014915749   -0.002648146
      2        1          -0.003333198   -0.006662612   -0.000740841
      3        1           0.001753825   -0.002535517   -0.000411781
      4        8          -0.096489602   -0.047031331    0.005522208
      5        1           0.079285293    0.018871534   -0.112464747
      6        1           0.050789901    0.059778592    0.102430820
      7        1          -0.001241792   -0.007504918    0.008312487
 -------------------------------------------------------------------
 Cartesian Forces:  Max     0.112464747 RMS     0.048234098

 GradGradGradGradGradGradGradGradGradGradGradGradGradGradGradGradGradGrad
 Berny optimization.
 Using GEDIIS/GDIIS optimizer.
 Internal  Forces:  Max     0.138875117 RMS     0.047047310
 Search for a local minimum.
 Step number   4 out of a maximum of   28
 All quantities printed in internal units (Hartrees-Bohrs-Radians)
 Mixed Optimization -- RFO/linear search
 Update second derivatives using D2CorX and points    3    4
 DE= -1.73D-01 DEPred=-1.81D-01 R= 9.54D-01
 SS=  1.41D+00  RLast= 8.49D-01 DXNew= 1.4270D+00 2.5463D+00
 Trust test= 9.54D-01 RLast= 8.49D-01 DXMaxT set to 1.43D+00
 The second derivative matrix:
                          R1        R2        R3        R4        R5
           R1           0.54479
           R2          -0.01026   0.54414
           R3          -0.03478  -0.03485  -0.06351
           R4           0.03948   0.03956   0.21454  -0.27581
           R5          -0.00636  -0.00596  -0.05520   0.03166   0.02130
           R6          -0.04433  -0.04442  -0.23095   0.28250  -0.06478
           A1           0.00438   0.00442   0.02077  -0.02421   0.00586
           A2          -0.00470  -0.00476  -0.02188   0.02187  -0.00814
           A3           0.00029   0.00031   0.00084   0.00286   0.00227
           A4           0.00311   0.00321   0.01038  -0.01442  -0.00014
           A5           0.00046   0.00042   0.00490  -0.00633   0.00212
           A6          -0.00416  -0.00421  -0.01896   0.02474  -0.00347
           A7          -0.00224  -0.00225  -0.01215   0.01657  -0.00277
           A8           0.00066   0.00064   0.00498  -0.00694   0.00134
           D1           0.00062   0.00059   0.00492  -0.00688   0.00136
           D2          -0.00045  -0.00042  -0.00403   0.00566  -0.00114
           D3           0.00060   0.00057   0.00480  -0.00672   0.00132
           D4          -0.00047  -0.00044  -0.00415   0.00582  -0.00118
                          R6        A1        A2        A3        A4
           R6          -0.20067
           A1           0.02649   0.15757
           A2          -0.02758   0.00257   0.15715
           A3           0.00072  -0.00011   0.00027   0.15983
           A4           0.01352  -0.00133   0.00133   0.00002   0.15890
           A5           0.00629  -0.00050   0.00049   0.00002  -0.00012
           A6          -0.02442   0.00224  -0.00227   0.00000   0.00136
           A7          -0.01578   0.00138  -0.00133  -0.00007   0.00075
           A8           0.00636  -0.00054   0.00054   0.00001  -0.00020
           D1           0.00627  -0.00053   0.00054   0.00000  -0.00018
           D2          -0.00511   0.00043  -0.00044   0.00000   0.00012
           D3           0.00612  -0.00052   0.00052   0.00000  -0.00017
           D4          -0.00527   0.00044  -0.00045   0.00000   0.00013
                          A5        A6        A7        A8        D1
           A5           0.15979
           A6           0.00044   0.15785
           A7           0.00035  -0.00134   0.00142
           A8          -0.00019   0.00049   0.00037   0.00214
           D1          -0.00019   0.00047   0.00037  -0.00015   0.00215
           D2           0.00016  -0.00037  -0.00031   0.00013   0.00013
           D3          -0.00019   0.00046   0.00036  -0.00015  -0.00015
           D4           0.00017  -0.00039  -0.00031   0.00013   0.00013
                          D2        D3        D4
           D2           0.00220
           D3           0.00012   0.00215
           D4          -0.00011   0.00013   0.00219
 ITU=  1  1  1  0
 Use linear search instead of GDIIS.
     Eigenvalues ---   -0.70858   0.00017   0.00230   0.00230   0.00236
     Eigenvalues ---    0.00269   0.00627   0.06334   0.10942   0.15877
     Eigenvalues ---    0.15975   0.15988   0.16000   0.54217   0.55473
 RFO step:  Lambda=-7.09744319D-01 EMin=-7.08576981D-01
 Mixed    1 eigenvectors in step.  Raw Step.Grad=  1.66D-02.
 RFO eigenvector is Hessian eigenvector with negative curvature.
 Taking step of  6.00D-01 in eigenvector direction(s).  Step.Grad=  7.13D-03.
 Skip linear search -- no minimum in search direction.
 Iteration  1 RMS(Cart)=  0.12997829 RMS(Int)=  0.05965349
 Iteration  2 RMS(Cart)=  0.06802849 RMS(Int)=  0.00023449
 Iteration  3 RMS(Cart)=  0.00024332 RMS(Int)=  0.00004132
 Iteration  4 RMS(Cart)=  0.00000007 RMS(Int)=  0.00004132
 Variable       Old X    -DE/DX   Delta X   Delta X   Delta X     New X
                                 (Linear)    (Quad)   (Total)
    R1        1.79853  -0.00284   0.00000   0.03331   0.03331   1.83184
    R2        1.79904  -0.00294   0.00000   0.03337   0.03337   1.83241
    R3        2.38938  -0.04007   0.00000   0.26965   0.26965   2.65902
    R4        2.63192  -0.13888   0.00000  -0.38530  -0.38530   2.24662
    R5        2.23401  -0.12900   0.00000   0.07029   0.07029   2.30430
    R6        2.48332  -0.04629   0.00000   0.35783   0.35783   2.84115
    A1        1.94712   0.00364   0.00000  -0.02906  -0.02908   1.91804
    A2        2.27994  -0.00878   0.00000   0.02939   0.02938   2.30932
    A3        2.05299   0.00531   0.00000   0.00068   0.00066   2.05365
    A4        1.91577  -0.00141   0.00000  -0.01508  -0.01518   1.90059
    A5        2.15346   0.00022   0.00000  -0.00670  -0.00680   2.14666
    A6        2.16538   0.00035   0.00000   0.02832   0.02822   2.19361
    A7        3.02959   0.00433   0.00000   0.02225   0.02225   3.05184
    A8        3.23435   0.00050   0.00000  -0.00907  -0.00908   3.22527
    D1        1.95662   0.00190   0.00000  -0.00894  -0.00896   1.94766
    D2       -1.52855  -0.00141   0.00000   0.00732   0.00733  -1.52122
    D3       -1.19173   0.00115   0.00000  -0.00874  -0.00875  -1.20049
    D4        1.60628  -0.00216   0.00000   0.00752   0.00753   1.61382
         Item               Value     Threshold  Converged?
 Maximum Force            0.138875     0.000450     NO 
 RMS     Force            0.047047     0.000300     NO 
 Maximum Displacement     0.334507     0.001800     NO 
 RMS     Displacement     0.195854     0.001200     NO 
 Predicted change in Energy=-1.441314D-01
 GradGradGradGradGradGradGradGradGradGradGradGradGradGradGradGradGradGrad

                          Input orientation:                          
 ---------------------------------------------------------------------
 Center     Atomic      Atomic             Coordinates (Angstroms)
 Number     Number       Type             X           Y           Z
 ---------------------------------------------------------------------
      1          8           0        1.097349    1.695364    0.001178
      2          1           0        2.065271    1.643118   -0.007160
      3          1           0        0.816854    2.623488   -0.011694
      4          8           0       -0.969233   -0.348858    0.041810
      5          1           0       -1.654980   -0.495758    1.001788
      6          1           0       -1.482808   -0.924950   -0.902252
      7          1           0        0.095007    0.709157   -0.049999
 ---------------------------------------------------------------------
                    Distance matrix (angstroms):
                    1          2          3          4          5
     1  O    0.000000
     2  H    0.969368   0.000000
     3  H    0.969668   1.587354   0.000000
     4  O    2.907104   3.630232   3.468113   0.000000
     5  H    3.657533   4.408292   4.106921   1.188859   0.000000
     6  H    3.786746   4.470463   4.321221   1.219383   1.959392
     7  H    1.407094   2.180840   2.046264   1.503472   2.370765
                    6          7
     6  H    0.000000
     7  H    2.426137   0.000000
 Stoichiometry    H5O2(1+)
 Framework group  C1[X(H5O2)]
 Deg. of freedom    15
 Full point group                 C1      NOp   1
 Largest Abelian subgroup         C1      NOp   1
 Largest concise Abelian subgroup C1      NOp   1
                         Standard orientation:                         
 ---------------------------------------------------------------------
 Center     Atomic      Atomic             Coordinates (Angstroms)
 Number     Number       Type             X           Y           Z
 ---------------------------------------------------------------------
      1          8           0       -1.463623   -0.003463   -0.005547
      2          1           0       -2.122860   -0.365989   -0.616820
      3          1           0       -1.907653    0.428529    0.740427
      4          8           0        1.443297   -0.012836   -0.036833
      5          1           0        2.049003    0.996670   -0.202383
      6          1           0        2.202291   -0.861774    0.399204
      7          1           0       -0.058174   -0.067049    0.018608
 ---------------------------------------------------------------------
 Rotational constants (GHZ):    156.3559251      5.8715693      5.8094315
 Standard basis: 6-31G(d,p) (6D, 7F)
 There are    55 symmetry adapted basis functions of A   symmetry.
 Integral buffers will be    131072 words long.
 Raffenetti 1 integral format.
 Two-electron integral symmetry is turned on.
    55 basis functions,    91 primitive gaussians,    55 cartesian basis functions
    10 alpha electrons       10 beta electrons
       nuclear repulsion energy        39.9379337875 Hartrees.
 NAtoms=    7 NActive=    7 NUniq=    7 SFac= 1.00D+00 NAtFMM=   60 NAOKFM=F Big=F
 One-electron integrals computed using PRISM.
 NBasis=    55 RedAO= T  NBF=    55
 NBsUse=    55 1.00D-06 NBFU=    55
 Initial guess read from the read-write file.
 B after Tr=     0.000000    0.000000    0.000000
         Rot=    1.000000    0.000000    0.000000    0.000000 Ang=   0.00 deg.
 Initial guess orbital symmetries:
       Occupied  (A) (A) (A) (A) (A) (A) (A) (A) (A) (A)
       Virtual   (A) (A) (A) (A) (A) (A) (A) (A) (A) (A) (A) (A)
                 (A) (A) (A) (A) (A) (A) (A) (A) (A) (A) (A) (A)
                 (A) (A) (A) (A) (A) (A) (A) (A) (A) (A) (A) (A)
                 (A) (A) (A) (A) (A) (A) (A) (A) (A)
 Harris functional with IExCor=  205 diagonalized for initial guess.
 ExpMin= 1.61D-01 ExpMax= 5.48D+03 ExpMxC= 8.25D+02 IAcc=1 IRadAn=         1 AccDes= 0.00D+00
 HarFok:  IExCor=  205 AccDes= 0.00D+00 IRadAn=         1 IDoV= 1
 ScaDFX=  1.000000  1.000000  1.000000  1.000000
 FoFCou: FMM=F IPFlag=           0 FMFlag=      100000 FMFlg1=           0
         NFxFlg=           0 DoJE=T BraDBF=F KetDBF=T FulRan=T
         Omega=  0.000000  0.000000  1.000000  0.000000  0.000000 ICntrl=     500 IOpCl=  0
         NMat0=    1 NMatS0=    1 NMatT0=    0 NMatD0=    1 NMtDS0=    0 NMtDT0=    0
         I1Cent=           4 NGrid=           0.
 Petite list used in FoFCou.
 Requested convergence on RMS density matrix=1.00D-08 within 128 cycles.
 Requested convergence on MAX density matrix=1.00D-06.
 Requested convergence on             energy=1.00D-06.
 No special actions if energy rises.
 Keep R1 ints in memory in canonical form, NReq=2034557.
 SCF Done:  E(RHF) =  -152.255438473     A.U. after   12 cycles
             Convg  =    0.7137D-08             -V/T =  2.0097
 Calling FoFJK, ICntrl=      2127 FMM=F ISym2X=0 I1Cent= 0 IOpClX= 0 NMat=1 NMatS=1 NMatT=0.
 ***** Axes restored to original set *****
 -------------------------------------------------------------------
 Center     Atomic                   Forces (Hartrees/Bohr)
 Number     Number              X              Y              Z
 -------------------------------------------------------------------
      1        8          -0.036473330   -0.014722727   -0.002428008
      2        1          -0.021075173   -0.009068582   -0.000401978
      3        1           0.004123714   -0.020844487    0.000004513
      4        8          -0.084102620   -0.038343971   -0.001548144
      5        1           0.073964224    0.016925111   -0.105680007
      6        1           0.055791580    0.065017039    0.103592992
      7        1           0.007771605    0.001037618    0.006460634
 -------------------------------------------------------------------
 Cartesian Forces:  Max     0.105680007 RMS     0.046892478

 GradGradGradGradGradGradGradGradGradGradGradGradGradGradGradGradGradGrad
 Berny optimization.
 Using GEDIIS/GDIIS optimizer.
 Internal  Forces:  Max     0.134418140 RMS     0.049937207
 Search for a local minimum.
 Step number   5 out of a maximum of   28
 All quantities printed in internal units (Hartrees-Bohrs-Radians)
 Mixed Optimization -- RFO/linear search
 Update second derivatives using D2CorX and points    4    5
 The second derivative matrix:
                          R1        R2        R3        R4        R5
           R1           0.56327
           R2           0.00868   0.56353
           R3           0.00992   0.01062   0.12440
           R4           0.00613   0.00593  -0.00337   0.02041
           R5           0.00324   0.00378  -0.00962  -0.02413   0.03255
           R6          -0.00529  -0.00491  -0.01520   0.00339  -0.01050
           A1          -0.00110  -0.00116  -0.00067  -0.00024   0.00072
           A2          -0.00059  -0.00058  -0.00274  -0.00135  -0.00343
           A3           0.00179   0.00185   0.00352   0.00178   0.00278
           A4           0.00067   0.00073  -0.00029  -0.00181  -0.00274
           A5          -0.00026  -0.00030   0.00063  -0.00069   0.00104
           A6          -0.00082  -0.00083  -0.00172   0.00295   0.00084
           A7           0.00167   0.00174   0.00373  -0.00153   0.00106
           A8          -0.00007  -0.00010  -0.00009   0.00005   0.00003
           D1           0.00025   0.00022   0.00050  -0.00014   0.00018
           D2          -0.00012  -0.00009  -0.00034   0.00012  -0.00017
           D3           0.00006   0.00003   0.00019  -0.00005   0.00012
           D4          -0.00030  -0.00028  -0.00065   0.00021  -0.00023
                          R6        A1        A2        A3        A4
           R6           0.06625
           A1           0.00247   0.16004
           A2          -0.00492   0.00040   0.15912
           A3           0.00245  -0.00046   0.00049   0.15997
           A4           0.00111  -0.00012   0.00023  -0.00012   0.15951
           A5           0.00093  -0.00002   0.00004  -0.00001   0.00013
           A6          -0.00344   0.00031  -0.00047   0.00016   0.00038
           A7           0.00224  -0.00044   0.00028   0.00017  -0.00015
           A8          -0.00020   0.00002   0.00000  -0.00001   0.00010
           D1           0.00012  -0.00006   0.00005   0.00001   0.00008
           D2          -0.00004   0.00003  -0.00003  -0.00001  -0.00009
           D3          -0.00005  -0.00002   0.00002   0.00000   0.00010
           D4          -0.00022   0.00007  -0.00006  -0.00002  -0.00008
                          A5        A6        A7        A8        D1
           A5           0.15990
           A6           0.00002   0.15950
           A7           0.00000   0.00010   0.00277
           A8          -0.00005  -0.00002  -0.00005   0.00231
           D1          -0.00006   0.00000   0.00001   0.00001   0.00231
           D2           0.00006   0.00002   0.00000   0.00000  -0.00001
           D3          -0.00006  -0.00002  -0.00002   0.00001   0.00001
           D4           0.00006   0.00000  -0.00003   0.00000  -0.00001
                          D2        D3        D4
           D2           0.00231
           D3          -0.00001   0.00231
           D4           0.00001  -0.00001   0.00231
 ITU=  0  1  1  1  0
 Use linear search instead of GDIIS.
     Eigenvalues ---    0.00015   0.00230   0.00230   0.00235   0.00258
     Eigenvalues ---    0.00563   0.04433   0.06960   0.12792   0.15884
     Eigenvalues ---    0.15976   0.15992   0.16073   0.55473   0.57287
 RFO step:  Lambda=-2.04651869D-01 EMin= 1.53561716D-04
 Quartic linear search produced a step of -0.15965.
 Iteration  1 RMS(Cart)=  0.15472532 RMS(Int)=  0.14630935
 Iteration  2 RMS(Cart)=  0.09797684 RMS(Int)=  0.07640016
 Iteration  3 RMS(Cart)=  0.06157690 RMS(Int)=  0.01475515
 Iteration  4 RMS(Cart)=  0.01314043 RMS(Int)=  0.00002684
 Iteration  5 RMS(Cart)=  0.00002361 RMS(Int)=  0.00000921
 Iteration  6 RMS(Cart)=  0.00000000 RMS(Int)=  0.00000921
 Variable       Old X    -DE/DX   Delta X   Delta X   Delta X     New X
                                 (Linear)    (Quad)   (Total)
    R1        1.83184  -0.02055  -0.00532  -0.01385  -0.01916   1.81268
    R2        1.83241  -0.02114  -0.00533  -0.01388  -0.01920   1.81320
    R3        2.65902  -0.06944  -0.04305  -0.23521  -0.27826   2.38076
    R4        2.24662  -0.13008   0.06151  -0.65137  -0.58986   1.65676
    R5        2.30430  -0.13442  -0.01122  -0.65128  -0.66251   1.64179
    R6        2.84115  -0.06323  -0.05713  -0.25701  -0.31413   2.52702
    A1        1.91804   0.00751   0.00464   0.02110   0.02573   1.94378
    A2        2.30932  -0.01117  -0.00469  -0.04373  -0.04842   2.26090
    A3        2.05365   0.00371  -0.00011   0.02317   0.02306   2.07671
    A4        1.90059   0.00013   0.00242  -0.00735  -0.00491   1.89568
    A5        2.14666   0.00049   0.00109   0.00328   0.00439   2.15105
    A6        2.19361  -0.00130  -0.00451   0.00051  -0.00397   2.18963
    A7        3.05184   0.00166  -0.00355   0.01583   0.01228   3.06412
    A8        3.22527   0.00064   0.00145   0.00300   0.00445   3.22973
    D1        1.94766   0.00166   0.00143   0.00920   0.01064   1.95830
    D2       -1.52122  -0.00125  -0.00117  -0.00687  -0.00804  -1.52926
    D3       -1.20049   0.00110   0.00140   0.00586   0.00726  -1.19323
    D4        1.61382  -0.00180  -0.00120  -0.01022  -0.01142   1.60240
         Item               Value     Threshold  Converged?
 Maximum Force            0.134418     0.000450     NO 
 RMS     Force            0.049937     0.000300     NO 
 Maximum Displacement     0.498935     0.001800     NO 
 RMS     Displacement     0.307863     0.001200     NO 
 Predicted change in Energy=-2.021952D-01
 GradGradGradGradGradGradGradGradGradGradGradGradGradGradGradGradGradGrad

                          Input orientation:                          
 ---------------------------------------------------------------------
 Center     Atomic      Atomic             Coordinates (Angstroms)
 Number     Number       Type             X           Y           Z
 ---------------------------------------------------------------------
      1          8           0        0.938642    1.565076    0.000566
      2          1           0        1.892875    1.467760   -0.008575
      3          1           0        0.681299    2.489322   -0.013418
      4          8           0       -0.902661   -0.262732    0.036461
      5          1           0       -1.416790   -0.374464    0.737763
      6          1           0       -1.267785   -0.664397   -0.641892
      7          1           0        0.041880    0.680995   -0.037235
 ---------------------------------------------------------------------
                    Distance matrix (angstroms):
                    1          2          3          4          5
     1  O    0.000000
     2  H    0.959226   0.000000
     3  H    0.959505   1.584780   0.000000
     4  O    2.594719   3.288108   3.175724   0.000000
     5  H    3.139002   3.860659   3.628708   0.876719   0.000000
     6  H    3.201815   3.864835   3.760299   0.868799   1.417643
     7  H    1.259845   2.011468   1.918195   1.337240   1.960187
                    6          7
     6  H    0.000000
     7  H    1.972539   0.000000
 Stoichiometry    H5O2(1+)
 Framework group  C1[X(H5O2)]
 Deg. of freedom    15
 Full point group                 C1      NOp   1
 Largest Abelian subgroup         C1      NOp   1
 Largest concise Abelian subgroup C1      NOp   1
                         Standard orientation:                         
 ---------------------------------------------------------------------
 Center     Atomic      Atomic             Coordinates (Angstroms)
 Number     Number       Type             X           Y           Z
 ---------------------------------------------------------------------
      1          8           0       -1.291265   -0.003057   -0.003517
      2          1           0       -1.907244   -0.672296   -0.308155
      3          1           0       -1.751663    0.759396    0.353344
      4          8           0        1.303329   -0.025687   -0.015290
      5          1           0        1.758988    0.516533   -0.532018
      6          1           0        1.836040   -0.340640    0.594493
      7          1           0       -0.032628   -0.033039    0.042797
 ---------------------------------------------------------------------
 Rotational constants (GHZ):    219.7246958      7.4338750      7.3726887
 Standard basis: 6-31G(d,p) (6D, 7F)
 There are    55 symmetry adapted basis functions of A   symmetry.
 Integral buffers will be    131072 words long.
 Raffenetti 1 integral format.
 Two-electron integral symmetry is turned on.
    55 basis functions,    91 primitive gaussians,    55 cartesian basis functions
    10 alpha electrons       10 beta electrons
       nuclear repulsion energy        45.7416633828 Hartrees.
 NAtoms=    7 NActive=    7 NUniq=    7 SFac= 1.00D+00 NAtFMM=   60 NAOKFM=F Big=F
 One-electron integrals computed using PRISM.
 NBasis=    55 RedAO= T  NBF=    55
 NBsUse=    55 1.00D-06 NBFU=    55
 Initial guess read from the read-write file.
 B after Tr=     0.000000    0.000000    0.000000
         Rot=    1.000000    0.000000    0.000000    0.000000 Ang=   0.00 deg.
 Initial guess orbital symmetries:
       Occupied  (A) (A) (A) (A) (A) (A) (A) (A) (A) (A)
       Virtual   (A) (A) (A) (A) (A) (A) (A) (A) (A) (A) (A) (A)
                 (A) (A) (A) (A) (A) (A) (A) (A) (A) (A) (A) (A)
                 (A) (A) (A) (A) (A) (A) (A) (A) (A) (A) (A) (A)
                 (A) (A) (A) (A) (A) (A) (A) (A) (A)
 Harris functional with IExCor=  205 diagonalized for initial guess.
 ExpMin= 1.61D-01 ExpMax= 5.48D+03 ExpMxC= 8.25D+02 IAcc=1 IRadAn=         1 AccDes= 0.00D+00
 HarFok:  IExCor=  205 AccDes= 0.00D+00 IRadAn=         1 IDoV= 1
 ScaDFX=  1.000000  1.000000  1.000000  1.000000
 FoFCou: FMM=F IPFlag=           0 FMFlag=      100000 FMFlg1=           0
         NFxFlg=           0 DoJE=T BraDBF=F KetDBF=T FulRan=T
         Omega=  0.000000  0.000000  1.000000  0.000000  0.000000 ICntrl=     500 IOpCl=  0
         NMat0=    1 NMatS0=    1 NMatT0=    0 NMatD0=    1 NMtDS0=    0 NMtDT0=    0
         I1Cent=           4 NGrid=           0.
 Petite list used in FoFCou.
 Requested convergence on RMS density matrix=1.00D-08 within 128 cycles.
 Requested convergence on MAX density matrix=1.00D-06.
 Requested convergence on             energy=1.00D-06.
 No special actions if energy rises.
 Keep R1 ints in memory in canonical form, NReq=2034557.
 SCF Done:  E(RHF) =  -152.359110905     A.U. after   12 cycles
             Convg  =    0.1594D-08             -V/T =  2.0020
 Calling FoFJK, ICntrl=      2127 FMM=F ISym2X=0 I1Cent= 0 IOpClX= 0 NMat=1 NMatS=1 NMatT=0.
 ***** Axes restored to original set *****
 -------------------------------------------------------------------
 Center     Atomic                   Forces (Hartrees/Bohr)
 Number     Number              X              Y              Z
 -------------------------------------------------------------------
      1        8          -0.031383698   -0.015699680   -0.001916057
      2        1          -0.010581905   -0.006303968   -0.000279597
      3        1           0.002192945   -0.009852828   -0.000183645
      4        8           0.131077520    0.091043542    0.008097765
      5        1          -0.057903883   -0.008788274    0.092590550
      6        1          -0.044722682   -0.053983534   -0.103423400
      7        1           0.011321704    0.003584742    0.005114384
 -------------------------------------------------------------------
 Cartesian Forces:  Max     0.131077520 RMS     0.051086133

 GradGradGradGradGradGradGradGradGradGradGradGradGradGradGradGradGradGrad
 Berny optimization.
 Using GEDIIS/GDIIS optimizer.
 Internal  Forces:  Max     0.124505324 RMS     0.042226373
 Search for a local minimum.
 Step number   6 out of a maximum of   28
 All quantities printed in internal units (Hartrees-Bohrs-Radians)
 Mixed Optimization -- RFO/linear search
 Update second derivatives using D2CorX and points    5    6
 DE= -1.04D-01 DEPred=-2.02D-01 R= 5.13D-01
 SS=  1.41D+00  RLast= 9.84D-01 DXNew= 2.4000D+00 2.9513D+00
 Trust test= 5.13D-01 RLast= 9.84D-01 DXMaxT set to 2.40D+00
 The second derivative matrix:
                          R1        R2        R3        R4        R5
           R1           0.52841
           R2          -0.02733   0.52633
           R3          -0.03231  -0.03301   0.07333
           R4           0.02121   0.02155   0.01918   0.19453
           R5           0.00932   0.01010   0.00232   0.16646   0.23815
           R6          -0.02641  -0.02672  -0.04050   0.02482   0.00633
           A1           0.00516   0.00531   0.00690  -0.00357  -0.00103
           A2          -0.00502  -0.00516  -0.00809   0.00150  -0.00165
           A3          -0.00030  -0.00032   0.00097   0.00230   0.00273
           A4           0.00456   0.00475   0.00464   0.00524   0.00593
           A5          -0.00052  -0.00057   0.00022  -0.00460  -0.00323
           A6          -0.00358  -0.00368  -0.00517  -0.00026  -0.00340
           A7          -0.00148  -0.00151  -0.00009  -0.00038   0.00138
           A8          -0.00001  -0.00004  -0.00005  -0.00094  -0.00101
           D1          -0.00022  -0.00026  -0.00010  -0.00153  -0.00145
           D2           0.00021   0.00025   0.00009   0.00145   0.00135
           D3          -0.00014  -0.00018  -0.00009  -0.00146  -0.00145
           D4           0.00029   0.00033   0.00010   0.00152   0.00134
                          R6        A1        A2        A3        A4
           R6           0.05429
           A1           0.00622   0.15891
           A2          -0.00754   0.00120   0.15856
           A3           0.00115  -0.00008   0.00022   0.15984
           A4           0.00407  -0.00085   0.00077   0.00010   0.15950
           A5           0.00049   0.00004  -0.00001  -0.00002  -0.00004
           A6          -0.00540   0.00082  -0.00085   0.00000   0.00047
           A7           0.00032   0.00012  -0.00012  -0.00002   0.00019
           A8          -0.00023   0.00001   0.00000  -0.00001   0.00004
           D1          -0.00027   0.00003  -0.00002  -0.00001   0.00006
           D2           0.00025  -0.00003   0.00002   0.00001  -0.00006
           D3          -0.00027   0.00002  -0.00001  -0.00001   0.00005
           D4           0.00025  -0.00004   0.00002   0.00001  -0.00007
                          A5        A6        A7        A8        D1
           A5           0.15999
           A6           0.00010   0.15939
           A7          -0.00002  -0.00014   0.00248
           A8          -0.00003   0.00000  -0.00004   0.00231
           D1          -0.00003   0.00000  -0.00003   0.00002   0.00232
           D2           0.00003   0.00001   0.00002  -0.00001  -0.00002
           D3          -0.00003   0.00000  -0.00003   0.00002   0.00002
           D4           0.00003   0.00001   0.00002  -0.00001  -0.00002
                          D2        D3        D4
           D2           0.00231
           D3          -0.00002   0.00232
[...]
     2   1     0.32  -0.18   0.21     0.06   0.00   0.02    -0.30  -0.04  -0.10
     3   1     0.32  -0.14  -0.24     0.06   0.00  -0.02     0.28   0.06  -0.08
     4   8    -0.05   0.02   0.00    -0.03  -0.04   0.00     0.00   0.00   0.01
     5   1     0.05   0.10   0.01     0.28   0.16   0.01     0.01   0.00   0.01
     6   1     0.21  -0.17  -0.02    -0.09  -0.01   0.00     0.01  -0.01   0.02
     7   1    -0.62  -0.41  -0.04    -0.43   0.83   0.07     0.00   0.08  -0.89
                    10                     11                     12
                     A                      A                      A
 Frequencies --  1793.5707              1980.5480              4025.2225
 Red. masses --     1.0886                 1.1342                 1.0426
 Frc consts  --     2.0633                 2.6212                 9.9527
 IR Inten    --    32.4505              2380.3827               240.2820
 Raman Activ --     3.0243                 8.1417                35.5465
 Depolar (P) --     0.7031                 0.3431                 0.1713
 Depolar (U) --     0.8257                 0.5109                 0.2925
  Atom  AN      X      Y      Z        X      Y      Z        X      Y      Z
     1   8    -0.04   0.01   0.00     0.09   0.00   0.00     0.04  -0.02   0.00
     2   1     0.30  -0.12   0.22    -0.33   0.12  -0.26    -0.34   0.12   0.60
     3   1     0.30  -0.08  -0.24    -0.33   0.08   0.28    -0.34   0.22  -0.57
     4   8     0.06  -0.01   0.00     0.03   0.00   0.00     0.00   0.00   0.00
     5   1    -0.45  -0.33  -0.02    -0.29  -0.18  -0.01    -0.04   0.06   0.01
     6   1    -0.48   0.36   0.03    -0.25   0.18   0.02    -0.04  -0.06   0.00
     7   1    -0.05   0.15   0.00    -0.60  -0.20  -0.02     0.02  -0.01   0.00
                    13                     14                     15
                     A                      A                      A
 Frequencies --  4088.5922              4130.4499              4194.4485
 Red. masses --     1.0440                 1.0904                 1.0876
 Frc consts  --    10.2823                10.9604                11.2742
 IR Inten    --   107.7303               438.1015               324.8532
 Raman Activ --    56.4032                18.6780                26.1081
 Depolar (P) --     0.0943                 0.7500                 0.7478
 Depolar (U) --     0.1723                 0.8571                 0.8557
  Atom  AN      X      Y      Z        X      Y      Z        X      Y      Z
     1   8    -0.01   0.00   0.00     0.00  -0.01   0.07     0.00   0.00   0.00
     2   1     0.03  -0.01  -0.06     0.34  -0.13  -0.60     0.00   0.00   0.00
     3   1     0.03  -0.02   0.06    -0.35   0.23  -0.57     0.00   0.00   0.00
     4   8     0.05   0.00   0.00     0.00   0.00   0.00     0.00   0.07   0.01
     5   1    -0.39   0.61   0.05     0.00   0.00   0.00     0.38  -0.57  -0.05
     6   1    -0.39  -0.56  -0.04     0.00   0.00   0.00    -0.42  -0.59  -0.04
     7   1     0.02   0.00   0.00     0.00   0.00  -0.01     0.00   0.00   0.00

 -------------------
 - Thermochemistry -
 -------------------
 Temperature   298.150 Kelvin.  Pressure   1.00000 Atm.
 Atom     1 has atomic number  8 and mass  15.99491
 Atom     2 has atomic number  1 and mass   1.00783
 Atom     3 has atomic number  1 and mass   1.00783
 Atom     4 has atomic number  8 and mass  15.99491
 Atom     5 has atomic number  1 and mass   1.00783
 Atom     6 has atomic number  1 and mass   1.00783
 Atom     7 has atomic number  1 and mass   1.00783
 Molecular mass:    37.02895 amu.
 Principal axes and moments of inertia in atomic units:
                           1         2         3
     Eigenvalues --     9.29543 209.88626 210.13392
           X            0.99994  -0.01095  -0.00089
           Y            0.01093   0.99975  -0.01950
           Z            0.00110   0.01949   0.99981
 This molecule is an asymmetric top.
 Rotational symmetry number  1.
 Rotational temperatures (Kelvin)      9.31789     0.41267     0.41218
 Rotational constants (GHZ):         194.15356     8.59866     8.58853
 Zero-point vibrational energy     161461.4 (Joules/Mol)
                                   38.59020 (Kcal/Mol)
 Warning -- explicit consideration of   6 degrees of freedom as
           vibrations may cause significant error
 Vibrational temperatures:    195.49   306.40   521.32   676.05   712.31
          (Kelvin)            731.78  2028.70  2067.31  2517.58  2580.54
                             2849.56  5791.39  5882.56  5942.79  6034.87
 
 Zero-point correction=                           0.061497 (Hartree/Particle)
 Thermal correction to Energy=                    0.066597
 Thermal correction to Enthalpy=                  0.067541
 Thermal correction to Gibbs Free Energy=         0.036430
 Sum of electronic and zero-point Energies=           -152.326449
 Sum of electronic and thermal Energies=              -152.321349
 Sum of electronic and thermal Enthalpies=            -152.320405
 Sum of electronic and thermal Free Energies=         -152.351516
 
                     E (Thermal)             CV                S
                      KCal/Mol        Cal/Mol-Kelvin    Cal/Mol-Kelvin
 Total                   41.790             15.324             65.479
 Electronic               0.000              0.000              0.000
 Translational            0.889              2.981             36.757
 Rotational               0.889              2.981             20.644
 Vibrational             40.013              9.362              8.078
 Vibration     1          0.614              1.918              2.861
 Vibration     2          0.644              1.821              2.018
 Vibration     3          0.736              1.550              1.112
 Vibration     4          0.827              1.317              0.738
 Vibration     5          0.851              1.261              0.671
 Vibration     6          0.864              1.231              0.637
                       Q            Log10(Q)             Ln(Q)
 Total Bot       0.175155D-16        -16.756577        -38.583444
 Total V=0       0.339002D+12         11.530202         26.549271
 Vib (Bot)       0.272857D-27        -27.564065        -63.468606
 Vib (Bot)    1  0.149816D+01          0.175558          0.404236
 Vib (Bot)    2  0.931546D+00         -0.030796         -0.070910
 Vib (Bot)    3  0.505071D+00         -0.296647         -0.683055
 Vib (Bot)    4  0.359013D+00         -0.444890         -1.024396
 Vib (Bot)    5  0.333422D+00         -0.477006         -1.098347
 Vib (Bot)    6  0.320664D+00         -0.493950         -1.137361
 Vib (V=0)       0.528097D+01          0.722713          1.664109
 Vib (V=0)    1  0.207939D+01          0.317936          0.732075
 Vib (V=0)    2  0.155725D+01          0.192358          0.442922
 Vib (V=0)    3  0.121070D+01          0.083037          0.191200
 Vib (V=0)    4  0.111554D+01          0.047485          0.109339
 Vib (V=0)    5  0.110097D+01          0.041777          0.096196
 Vib (V=0)    6  0.109399D+01          0.039014          0.089833
 Electronic      0.100000D+01          0.000000          0.000000
 Translational   0.885661D+07          6.947267         15.996674
 Rotational      0.724805D+04          3.860221          8.888488
 ***** Axes restored to original set *****
 -------------------------------------------------------------------
 Center     Atomic                   Forces (Hartrees/Bohr)
 Number     Number              X              Y              Z
 -------------------------------------------------------------------
      1        8           0.000031951   -0.000054115   -0.000006581
      2        1          -0.000021864    0.000017419    0.000003846
      3        1          -0.000019596   -0.000023595   -0.000000453
      4        8           0.000062973    0.000060962   -0.000090411
      5        1          -0.000016254   -0.000005782    0.000093013
      6        1          -0.000009747   -0.000024526   -0.000036350
      7        1          -0.000027464    0.000029636    0.000036936
 -------------------------------------------------------------------
 Cartesian Forces:  Max     0.000093013 RMS     0.000041144

 GradGradGradGradGradGradGradGradGradGradGradGradGradGradGradGradGradGrad
 Berny optimization.
 Internal  Forces:  Max     0.000085219 RMS     0.000034045
 Search for a local minimum.
 Step number   1 out of a maximum of    2
 All quantities printed in internal units (Hartrees-Bohrs-Radians)
 Second derivative matrix not updated -- analytic derivatives used.
 The second derivative matrix:
                          R1        R2        R3        R4        R5
           R1           0.59738
           R2          -0.00127   0.59747
           R3           0.00451   0.00449   0.25296
           R4           0.00065   0.00065  -0.00294   0.61540
           R5           0.00070   0.00070  -0.00300  -0.00247   0.61708
           R6          -0.00450  -0.00450   0.12516   0.00486   0.00442
           A1           0.00630   0.00631   0.00605  -0.00024  -0.00019
           A2           0.00164  -0.00373  -0.00228   0.00027   0.00015
           A3          -0.00373   0.00162  -0.00231   0.00026   0.00014
           A4           0.00017   0.00017  -0.01427   0.01090   0.01139
           A5           0.00000   0.00000   0.00600  -0.00359  -0.00720
           A6          -0.00016  -0.00017   0.00827  -0.00731  -0.00418
           A7           0.00453   0.00454   0.00209  -0.00037   0.00029
           A8           0.00019  -0.00018  -0.00002  -0.00003  -0.00003
           D1          -0.00336  -0.00287  -0.00117  -0.00037  -0.00003
           D2          -0.00286  -0.00335  -0.00107  -0.00027   0.00006
           D3           0.00286   0.00334   0.00107   0.00027  -0.00006
           D4           0.00336   0.00286   0.00117   0.00037   0.00003
                          R6        A1        A2        A3        A4
           R6           0.08785
           A1          -0.01033   0.07521
           A2           0.00773  -0.04121   0.06911
           A3           0.00780  -0.04116  -0.01931   0.06909
           A4           0.00563   0.00127  -0.00092  -0.00095   0.07939
           A5          -0.00278  -0.00069  -0.00087  -0.00086  -0.03984
           A6          -0.00286  -0.00057   0.00177   0.00182  -0.03955
           A7           0.00138   0.00907   0.00404   0.00401   0.00037
           A8          -0.00002   0.00000   0.00443  -0.00442  -0.00005
           D1          -0.00187  -0.00430   0.00115   0.00120   0.00022
           D2          -0.00185  -0.00431   0.00072   0.00164   0.00042
           D3           0.00186   0.00430  -0.00120  -0.00117  -0.00042
           D4           0.00188   0.00430  -0.00162  -0.00073  -0.00022
                          A5        A6        A7        A8        D1
           A5           0.04299
           A6          -0.00315   0.04270
           A7          -0.00599   0.00562   0.05373
           A8           0.00001   0.00003  -0.00001   0.00865
           D1           0.00041  -0.00064   0.00012  -0.00121   0.00319
           D2           0.00032  -0.00073   0.00016   0.00105   0.00210
           D3          -0.00032   0.00073  -0.00017  -0.00120  -0.00147
           D4          -0.00041   0.00064  -0.00013   0.00106  -0.00256
                          D2        D3        D4
           D2           0.00274
           D3          -0.00256   0.00318
           D4          -0.00192   0.00209   0.00273
 ITU=  0
     Eigenvalues ---    0.00047   0.00130   0.00751   0.00890   0.01754
     Eigenvalues ---    0.04109   0.06040   0.08885   0.11960   0.12522
     Eigenvalues ---    0.32113   0.59661   0.59876   0.61455   0.61891
 Angle between quadratic step and forces=  83.13 degrees.
 Linear search not attempted -- first point.
 Iteration  1 RMS(Cart)=  0.00191366 RMS(Int)=  0.00000932
 Iteration  2 RMS(Cart)=  0.00000682 RMS(Int)=  0.00000626
 Iteration  3 RMS(Cart)=  0.00000000 RMS(Int)=  0.00000626
 Variable       Old X    -DE/DX   Delta X   Delta X   Delta X     New X
                                 (Linear)    (Quad)   (Total)
    R1        1.80010  -0.00003   0.00000  -0.00006  -0.00006   1.80004
    R2        1.80006  -0.00002   0.00000  -0.00002  -0.00002   1.80004
    R3        2.04144  -0.00005   0.00000   0.00034   0.00034   2.04178
    R4        1.79264   0.00009   0.00000   0.00015   0.00015   1.79279
    R5        1.79178   0.00004   0.00000   0.00007   0.00007   1.79185
    R6        2.48479  -0.00005   0.00000  -0.00105  -0.00105   2.48373
    A1        1.96661   0.00001   0.00000  -0.00007  -0.00007   1.96654
    A2        2.06443   0.00003   0.00000   0.00057   0.00057   2.06500
    A3        2.06567  -0.00004   0.00000  -0.00066  -0.00066   2.06501
    A4        1.92471   0.00003   0.00000   0.00029   0.00028   1.92499
    A5        2.15571  -0.00005   0.00000  -0.00086  -0.00088   2.15484
    A6        2.20271   0.00002   0.00000   0.00066   0.00065   2.20336
    A7        3.09277   0.00001   0.00000   0.00011   0.00011   3.09288
    A8        3.14457   0.00000   0.00000  -0.00294  -0.00294   3.14164
    D1        1.88972   0.00000   0.00000  -0.00083  -0.00083   1.88889
    D2       -1.26274   0.00001   0.00000   0.00988   0.00988  -1.25286
    D3       -1.88764  -0.00001   0.00000  -0.00118  -0.00118  -1.88882
    D4        1.24309   0.00000   0.00000   0.00953   0.00953   1.25262
         Item               Value     Threshold  Converged?
 Maximum Force            0.000085     0.000450     YES
 RMS     Force            0.000034     0.000300     YES
 Maximum Displacement     0.003575     0.001800     NO 
 RMS     Displacement     0.001914     0.001200     NO 
 Predicted change in Energy=-1.229639D-07
 GradGradGradGradGradGradGradGradGradGradGradGradGradGradGradGradGradGrad

 1\1\GINC-NISER-THINKCENTRE-M93P\Freq\RHF\6-31G(d,p)\H5O2(1+)\STUDENT\0
 1-Mar-2021\0\\#N Geom=AllCheck Guess=TCheck SCRF=Check GenChk RHF/6-31
 G(d,p) Freq\\h30+\\1,1\O,0.8409915041,1.5500628208,0.1427791775\H,1.74
 80929979,1.2979067126,-0.0020739103\H,0.6460739218,2.4235898016,-0.183
 2793977\O,-0.8557809998,-0.1350677907,0.0212220627\H,-1.3086439836,-0.
 4539420146,0.7913671523\H,-1.1818923385,-0.5702586947,-0.7554938188\H,
 0.0786184082,0.7892699552,0.0591492643\\Version=EM64L-G09RevC.01\State
 =1-A\HF=-152.3879464\RMSD=2.223e-10\RMSF=4.114e-05\ZeroPoint=0.0614974
 \Thermal=0.066597\Dipole=0.2780221,0.2183083,-0.3916053\DipoleDeriv=-0
 .9119847,-0.3445006,-0.0218593,-0.3478916,-0.9090054,-0.0219341,-0.042
 6145,-0.0422376,-0.5670024,0.5561068,-0.0373888,0.0067054,-0.0626393,0
 .3616348,0.0157269,0.0204754,0.0160975,0.4597149,0.3557975,-0.0577619,
 0.0087713,-0.0307515,0.5586677,-0.0148119,0.0051322,-0.005286,0.463022
 3,-0.9539103,-0.2358715,-0.0121017,-0.237252,-0.9491067,0.0012269,-0.0
 178507,-0.0044253,-0.6314912,0.4094804,-0.0508994,-0.0343468,-0.055114
 6,0.3971382,-0.0352208,-0.0618479,-0.0619237,0.4472263,0.3919841,-0.05
 86503,0.0326344,-0.0539763,0.4094487,0.0303116,0.0624936,0.0593222,0.4
 452322,1.1525262,0.7850723,0.0201967,0.7876254,1.1312226,0.0247013,0.0
 342119,0.0384529,0.3832978\Polar=10.8950031,2.6606549,10.7117338,-0.22
 64699,-0.1715973,8.5421191\PolarDeriv=-1.7061605,1.8289992,1.7188927,0
 .9343422,-0.1797415,-0.2492596,2.1471293,1.5062006,-1.1522062,-0.10868
 1,1.3600964,-0.4871847,1.470263,0.024803,1.9612975,-0.0406152,-0.34649
 44,1.1712836,5.1510024,-0.5890361,0.6191944,-0.4031556,-0.0406219,0.21
 2465,-0.8484371,0.9770357,-0.4467212,0.0767693,-0.2284112,-0.0389324,-
 0.7111571,0.1059367,-0.2949485,1.098474,-0.1506608,-0.2837046,-0.23642
 47,0.8704921,-0.584522,-0.3954423,0.129399,-0.0880293,0.5459128,-0.374
 4158,4.7866274,0.0536819,-1.053553,0.3735311,-0.3890931,0.0999761,-1.2
 516066,-0.1681589,1.3351601,-0.7825608,1.2223269,0.7172197,0.7334434,-
 0.3476193,-0.0648078,2.1082378,0.7599306,0.7082991,1.1191569,-0.030052
 3,0.2683832,2.0303834,-0.239811,0.0641282,0.4069007,2.287292,2.212113,
 0.0629996,-1.7766312,-0.8613601,-0.3732596,1.5545101,0.4146278,-1.3650
 814,-0.359359,-0.8648921,-1.1199725,0.4475419,1.190234,-1.056404,1.183
 2468,0.8993295,0.8355224,-1.7021018,-1.2617549,3.5220809,-1.1607533,-0
 .8556855,-0.3322478,-1.2194048,-0.4458831,-1.09276,-0.3632743,-0.85505
 07,-1.6827503,-0.4076612,-1.530386,-1.3206514,-0.9058795,-0.9226383,-1
 .1612608,-1.3146093,-1.672326,-3.5923399,-1.4933597,-1.1106293,-1.7815
 011,-0.1232304,0.1870276,0.4744275,-1.8819023,-1.0971769,-1.5041341,-0
 .0315987,-0.0063636,0.499258,-0.4075691,-0.2715352,-0.4959047,-0.16028
 08,-0.116037,-0.0977588\HyperPolar=14.3141866,-1.8707313,-0.7364488,12
 .9624195,-0.5585534,0.5318292,-5.88069,-9.642218,-8.1868571,-0.7289086
 \PG=C01 [X(H5O2)]\NImag=0\\0.81080466,-0.12278952,0.78416798,-0.034484
 30,-0.16462712,0.11803116,-0.53711516,0.13508097,0.07742261,0.54552316
 ,0.11128119,-0.12227633,-0.00334171,-0.13891085,0.10293328,0.10633053,
 -0.01440101,-0.02341881,-0.08335197,0.01008462,0.02152340,-0.11019070,
 0.07503285,-0.02735290,0.00178833,0.04074799,-0.01871606,0.08979023,0.
 10119198,-0.49614053,0.17376048,-0.00104900,-0.00115640,0.00262780,-0.
 10406825,0.50721189,-0.04191776,0.19886648,-0.07652383,0.00199030,-0.0
 1164444,0.00297702,0.03579584,-0.18244249,0.07301303,-0.04421562,-0.05
 764390,-0.00141424,0.00219632,-0.00373516,-0.00039581,-0.00761511,0.00
 179407,-0.00238009,0.32131524,-0.05780516,-0.04253129,-0.00101314,0.00
 175533,-0.00808671,-0.00091289,-0.00364003,0.00198384,-0.00143598,0.29
 576167,0.30374336,-0.00275306,-0.00236206,0.01685283,-0.00062170,-0.00
 123003,-0.00064466,-0.00181487,-0.00076618,-0.00089252,-0.06680505,0.0
 6995589,0.87695439,-0.00243286,-0.00269768,-0.00129838,-0.00014773,-0.
 00055177,0.00032054,-0.00006662,-0.00059890,-0.00019339,-0.16561527,-0
 .12417330,0.22807763,0.15503779,-0.00349763,-0.00361352,-0.00166562,-0
 .00046949,-0.00013062,-0.00022103,-0.00066085,0.00001913,0.00028290,-0
 .12968203,-0.10246575,0.15618046,0.11521809,0.09061931,-0.00631843,-0.
 00657644,-0.00229608,0.00061383,-0.00036721,0.00042149,-0.00032224,0.0
 0059210,0.00017972,0.19179770,0.12124332,-0.41578021,-0.21753469,-0.14
 344634,0.43381647,-0.00365377,-0.00390230,0.00166620,-0.00024123,-0.00
 103662,-0.00052443,-0.00048167,-0.00055656,-0.00015111,-0.10744215,-0.
 12923643,-0.16279856,0.01145031,0.01409736,0.02159922,0.09476332,-0.00
 313180,-0.00232783,0.00132895,-0.00060557,-0.00036167,-0.00006670,-0.0
 0086688,-0.00036484,-0.00053759,-0.12347938,-0.15398022,-0.22250753,0.
 00804236,0.01077072,0.01717368,0.11395275,0.14378116,0.00674655,0.0063
 2120,-0.00145577,-0.00041753,0.00065433,0.00044791,0.00064779,-0.00037
 999,0.00069011,-0.12596539,-0.18703316,-0.42342949,-0.01765013,-0.0207
 1450,-0.02350258,0.14866714,0.21178460,0.44196769,-0.11319655,-0.02308
 041,-0.01453900,-0.01200369,-0.00779479,-0.00366279,0.02677554,0.00328
 665,0.00685620,0.00137661,0.01733791,0.00671561,0.00177438,0.00499455,
 0.01016460,0.00560521,0.00608851,-0.01202844,0.08966851,-0.02524906,-0
 .11727848,-0.00444185,0.00419860,0.02907845,0.00288921,-0.00654484,-0.
 01155309,-0.00308889,0.01698472,0.00133677,0.00072944,0.00476120,0.004
 80073,0.01138090,0.00668180,0.00248268,-0.01063249,-0.00083242,0.09113
 295,-0.02760353,-0.01722105,-0.03118950,0.00436445,0.00584443,-0.00130
 635,0.01176244,0.00660826,0.00055648,0.00516287,-0.00080404,-0.0530603
 3,0.00827842,0.00958413,0.00716120,-0.00845847,-0.00717541,0.00528213,
 0.00649381,0.00316367,0.07255636\\-0.00003195,0.00005411,0.00000658,0.
 00002186,-0.00001742,-0.00000385,0.00001960,0.00002359,0.00000045,-0.0
 0006297,-0.00006096,0.00009041,0.00001625,0.00000578,-0.00009301,0.000
 00975,0.00002453,0.00003635,0.00002746,-0.00002964,-0.00003694\\\@


 MEN HAVE BECOME THE TOOLS OF THEIR TOOLS... THOREAU   
 Job cpu time:  0 days  0 hours  0 minutes  2.3 seconds.
 File lengths (MBytes):  RWF=      5 Int=      0 D2E=      0 Chk=      1 Scr=      1
 Normal termination of Gaussian 09 at Mon Mar  1 15:20:42 2021.
