 Entering Gaussian System, Link 0=g09
 Input=h3_b3l2.com
 Output=h3_b3l2.log
 Initial command:
 /home/student/g09/l1.exe /home/student/singh/Gau-16060.inp -scrdir=/home/student/singh/
 Entering Link 1 = /home/student/g09/l1.exe PID=     16062.
  
 Copyright (c) 1988,1990,1992,1993,1995,1998,2003,2009,2011,
            Gaussian, Inc.  All Rights Reserved.
  
 This is part of the Gaussian(R) 09 program.  It is based on
 the Gaussian(R) 03 system (copyright 2003, Gaussian, Inc.),
 the Gaussian(R) 98 system (copyright 1998, Gaussian, Inc.),
 the Gaussian(R) 94 system (copyright 1995, Gaussian, Inc.),
 the Gaussian 92(TM) system (copyright 1992, Gaussian, Inc.),
 the Gaussian 90(TM) system (copyright 1990, Gaussian, Inc.),
 the Gaussian 88(TM) system (copyright 1988, Gaussian, Inc.),
 the Gaussian 86(TM) system (copyright 1986, Carnegie Mellon
 University), and the Gaussian 82(TM) system (copyright 1983,
 Carnegie Mellon University). Gaussian is a federally registered
 trademark of Gaussian, Inc.
  
 This software contains proprietary and confidential information,
 including trade secrets, belonging to Gaussian, Inc.
  
 This software is provided under written license and may be
 used, copied, transmitted, or stored only in accord with that
 written license.
  
 The following legend is applicable only to US Government
 contracts under FAR:
  
                    RESTRICTED RIGHTS LEGEND
  
 Use, reproduction and disclosure by the US Government is
 subject to restrictions as set forth in subparagraphs (a)
 and (c) of the Commercial Computer Software - Restricted
 Rights clause in FAR 52.227-19.
  
 Gaussian, Inc.
 340 Quinnipiac St., Bldg. 40, Wallingford CT 06492
  
  
 ---------------------------------------------------------------
 Warning -- This program may not be used in any manner that
 competes with the business of Gaussian, Inc. or will provide
 assistance to any competitor of Gaussian, Inc.  The licensee
 of this program is prohibited from giving any competitor of
 Gaussian, Inc. access to this program.  By using this program,
 the user acknowledges that Gaussian, Inc. is engaged in the
 business of creating and licensing software in the field of
 computational chemistry and represents and warrants to the
 licensee that it is not a competitor of Gaussian, Inc. and that
 it will not use this program in any manner prohibited above.
 ---------------------------------------------------------------
  

 Cite this work as:
 Gaussian 09, Revision C.01,
 M. J. Frisch, G. W. Trucks, H. B. Schlegel, G. E. Scuseria, 
 M. A. Robb, J. R. Cheeseman, G. Scalmani, V. Barone, B. Mennucci, 
 G. A. Petersson, H. Nakatsuji, M. Caricato, X. Li, H. P. Hratchian, 
 A. F. Izmaylov, J. Bloino, G. Zheng, J. L. Sonnenberg, M. Hada, 
 M. Ehara, K. Toyota, R. Fukuda, J. Hasegawa, M. Ishida, T. Nakajima, 
 Y. Honda, O. Kitao, H. Nakai, T. Vreven, J. A. Montgomery, Jr., 
 J. E. Peralta, F. Ogliaro, M. Bearpark, J. J. Heyd, E. Brothers, 
 K. N. Kudin, V. N. Staroverov, T. Keith, R. Kobayashi, J. Normand, 
 K. Raghavachari, A. Rendell, J. C. Burant, S. S. Iyengar, J. Tomasi, 
 M. Cossi, N. Rega, J. M. Millam, M. Klene, J. E. Knox, J. B. Cross, 
 V. Bakken, C. Adamo, J. Jaramillo, R. Gomperts, R. E. Stratmann, 
 O. Yazyev, A. J. Austin, R. Cammi, C. Pomelli, J. W. Ochterski, 
 R. L. Martin, K. Morokuma, V. G. Zakrzewski, G. A. Voth, 
 P. Salvador, J. J. Dannenberg, S. Dapprich, A. D. Daniels, 
 O. Farkas, J. B. Foresman, J. V. Ortiz, J. Cioslowski, 
 and D. J. Fox, Gaussian, Inc., Wallingford CT, 2010.
 
 ******************************************
 Gaussian 09:  EM64L-G09RevC.01 23-Sep-2011
                 1-Mar-2021 
 ******************************************
 %chk=h3_b3l2.chk
 ------------------------
 # freq opt b3lyp/6-31g**
 ------------------------
 1/14=-1,18=20,19=15,26=3,38=1/1,3;
 2/9=110,12=2,17=6,18=5,40=1/2;
 3/5=1,6=6,7=101,11=2,16=1,25=1,30=1,71=1,74=-5/1,2,3;
 4//1;
 5/5=2,38=5/2;
 6/7=2,8=2,9=2,10=2,28=1/1;
 7//1,2,3,16;
 1/14=-1,18=20,19=15/3(2);
 2/9=110/2;
 99//99;
 2/9=110/2;
 3/5=1,6=6,7=101,11=2,16=1,25=1,30=1,71=1,74=-5/1,2,3;
 4/5=5,16=3/1;
 5/5=2,38=5/2;
 7//1,2,3,16;
 1/14=-1,18=20,19=15/3(-5);
 2/9=110/2;
 6/7=2,8=2,9=2,10=2,19=2,28=1/1;
 99/9=1/99;
 -------------------
 Title Card Required
 -------------------
 Charge =  1 Multiplicity = 1
 Symbolic Z-Matrix:
 O                     0.        0.       -0.07044 
 H                    -0.82026  -0.47358   0.1878 
 H                     0.82026  -0.47358   0.1878 
 H                     0.        0.94716   0.1878 
 

 GradGradGradGradGradGradGradGradGradGradGradGradGradGradGradGradGradGrad
 Berny optimization.
 Initialization pass.
                           ----------------------------
                           !    Initial Parameters    !
                           ! (Angstroms and Degrees)  !
 --------------------------                            --------------------------
 ! Name  Definition              Value          Derivative Info.                !
 --------------------------------------------------------------------------------
 ! R1    R(1,2)                  0.9817         estimate D2E/DX2                !
 ! R2    R(1,3)                  0.9817         estimate D2E/DX2                !
 ! R3    R(1,4)                  0.9817         estimate D2E/DX2                !
 ! A1    A(2,1,3)              113.3414         estimate D2E/DX2                !
 ! A2    A(2,1,4)              113.3414         estimate D2E/DX2                !
 ! A3    A(3,1,4)              113.3414         estimate D2E/DX2                !
 ! D1    D(2,1,4,3)            131.0108         estimate D2E/DX2                !
 --------------------------------------------------------------------------------
 Trust Radius=3.00D-01 FncErr=1.00D-07 GrdErr=1.00D-06
 Number of steps in this run=     20 maximum allowed number of steps=    100.
 GradGradGradGradGradGradGradGradGradGradGradGradGradGradGradGradGradGrad

                          Input orientation:                          
 ---------------------------------------------------------------------
 Center     Atomic      Atomic             Coordinates (Angstroms)
 Number     Number       Type             X           Y           Z
 ---------------------------------------------------------------------
      1          8           0        0.000000    0.000000   -0.070439
      2          1           0       -0.820264   -0.473580    0.187804
      3          1           0        0.820264   -0.473580    0.187804
      4          1           0        0.000000    0.947159    0.187804
 ---------------------------------------------------------------------
                    Distance matrix (angstroms):
                    1          2          3          4
     1  O    0.000000
     2  H    0.981733   0.000000
     3  H    0.981733   1.640528   0.000000
     4  H    0.981733   1.640528   1.640528   0.000000
 Stoichiometry    H3O(1+)
 Framework group  C3V[C3(O),3SGV(H)]
 Deg. of freedom     2
 Full point group                 C3V     NOp   6
 Largest Abelian subgroup         CS      NOp   2
 Largest concise Abelian subgroup CS      NOp   2
                         Standard orientation:                         
 ---------------------------------------------------------------------
 Center     Atomic      Atomic             Coordinates (Angstroms)
 Number     Number       Type             X           Y           Z
 ---------------------------------------------------------------------
      1          8           0        0.000000    0.000000    0.070430
      2          1           0        0.000000    0.947159   -0.187813
      3          1           0        0.820264   -0.473580   -0.187813
      4          1           0       -0.820264   -0.473580   -0.187813
 ---------------------------------------------------------------------
 Rotational constants (GHZ):    331.2278118    331.2278118    186.3222719
 Standard basis: 6-31G(d,p) (6D, 7F)
 There are    20 symmetry adapted basis functions of A'  symmetry.
 There are    10 symmetry adapted basis functions of A"  symmetry.
 Integral buffers will be    131072 words long.
 Raffenetti 2 integral format.
 Two-electron integral symmetry is turned on.
    30 basis functions,    49 primitive gaussians,    30 cartesian basis functions
     5 alpha electrons        5 beta electrons
       nuclear repulsion energy        13.9042580595 Hartrees.
 NAtoms=    4 NActive=    4 NUniq=    2 SFac= 4.00D+00 NAtFMM=   60 NAOKFM=F Big=F
 One-electron integrals computed using PRISM.
 NBasis=    30 RedAO= T  NBF=    20    10
 NBsUse=    30 1.00D-06 NBFU=    20    10
 Harris functional with IExCor=  402 diagonalized for initial guess.
 ExpMin= 1.61D-01 ExpMax= 5.48D+03 ExpMxC= 8.25D+02 IAcc=1 IRadAn=         1 AccDes= 0.00D+00
 HarFok:  IExCor=  402 AccDes= 0.00D+00 IRadAn=         1 IDoV= 1
 ScaDFX=  1.000000  1.000000  1.000000  1.000000
 FoFCou: FMM=F IPFlag=           0 FMFlag=      100000 FMFlg1=           0
         NFxFlg=           0 DoJE=T BraDBF=F KetDBF=T FulRan=T
         Omega=  0.000000  0.000000  1.000000  0.000000  0.000000 ICntrl=     500 IOpCl=  0
         NMat0=    1 NMatS0=    1 NMatT0=    0 NMatD0=    1 NMtDS0=    0 NMtDT0=    0
         I1Cent=           4 NGrid=           0.
 Petite list used in FoFCou.
 Initial guess orbital symmetries:
       Occupied  (A1) (A1) (E) (E) (A1)
       Virtual   (A1) (E) (E) (E) (E) (A1) (A1) (E) (E) (A1) (E)
                 (E) (A1) (A2) (E) (E) (E) (E) (A1) (E) (E) (A1)
                 (E) (E) (A1)
 The electronic state of the initial guess is 1-A1.
 Requested convergence on RMS density matrix=1.00D-08 within 128 cycles.
 Requested convergence on MAX density matrix=1.00D-06.
 Requested convergence on             energy=1.00D-06.
 No special actions if energy rises.
 Keep R1 ints in memory in canonical form, NReq=1021027.
 Integral accuracy reduced to 1.0D-05 until final iterations.
 Initial convergence to 1.0D-05 achieved.  Increase integral accuracy.
 SCF Done:  E(RB3LYP) =  -76.7056362547     A.U. after    9 cycles
             Convg  =    0.4795D-08             -V/T =  2.0092

 **********************************************************************

            Population analysis using the SCF density.

 **********************************************************************

 Orbital symmetries:
       Occupied  (A1) (A1) (E) (E) (A1)
       Virtual   (A1) (E) (E) (E) (E) (A1) (A1) (E) (E) (A1) (E)
                 (E) (A1) (A2) (E) (E) (E) (E) (A1) (E) (E) (A1)
                 (E) (E) (A1)
 The electronic state is 1-A1.
 Alpha  occ. eigenvalues --  -19.59087  -1.45037  -0.93887  -0.93887  -0.73828
 Alpha virt. eigenvalues --   -0.26454  -0.16211  -0.16211   0.40709   0.40709
 Alpha virt. eigenvalues --    0.44750   0.50515   0.62853   0.62853   0.87461
 Alpha virt. eigenvalues --    1.06771   1.06771   1.64287   1.70119   1.89664
 Alpha virt. eigenvalues --    1.89664   2.13820   2.13820   2.29330   2.67659
 Alpha virt. eigenvalues --    2.67659   2.88729   3.07720   3.07720   3.59725
          Condensed to atoms (all electrons):
              1          2          3          4
     1  O    7.477629   0.301300   0.301300   0.301300
     2  H    0.301300   0.260628  -0.011219  -0.011219
     3  H    0.301300  -0.011219   0.260628  -0.011219
     4  H    0.301300  -0.011219  -0.011219   0.260628
 Mulliken atomic charges:
              1
     1  O   -0.381529
     2  H    0.460510
     3  H    0.460510
     4  H    0.460510
 Sum of Mulliken atomic charges =   1.00000
 Mulliken charges with hydrogens summed into heavy atoms:
              1
     1  O    1.000000
 Sum of Mulliken charges with hydrogens summed into heavy atoms =   1.00000
 Electronic spatial extent (au):  <R**2>=             18.2922
 Charge=              1.0000 electrons
 Dipole moment (field-independent basis, Debye):
    X=              0.0000    Y=              0.0000    Z=             -1.4974  Tot=              1.4974
 Quadrupole moment (field-independent basis, Debye-Ang):
   XX=             -2.3991   YY=             -2.3991   ZZ=             -6.1795
   XY=              0.0000   XZ=              0.0000   YZ=              0.0000
 Traceless Quadrupole moment (field-independent basis, Debye-Ang):
   XX=              1.2601   YY=              1.2601   ZZ=             -2.5203
   XY=              0.0000   XZ=              0.0000   YZ=              0.0000
 Octapole moment (field-independent basis, Debye-Ang**2):
  XXX=              0.0000  YYY=              1.7571  ZZZ=             -0.7210  XYY=              0.0000
  XXY=             -1.7571  XXZ=             -0.8918  XZZ=              0.0000  YZZ=              0.0000
  YYZ=             -0.8918  XYZ=              0.0000
 Hexadecapole moment (field-independent basis, Debye-Ang**3):
 XXXX=             -3.0382 YYYY=             -3.0382 ZZZZ=             -4.5850 XXXY=              0.0000
 XXXZ=              0.0000 YYYX=              0.0000 YYYZ=             -0.3850 ZZZX=              0.0000
 ZZZY=              0.0000 XXYY=             -1.0127 XXZZ=             -1.5892 YYZZ=             -1.5892
 XXYZ=              0.3850 YYXZ=              0.0000 ZZXY=              0.0000
 N-N= 1.390425805947D+01 E-N=-2.044503096761D+02  KE= 7.600454869833D+01
 Symmetry A'   KE= 7.212081955399D+01
 Symmetry A"   KE= 3.883729144338D+00
 Calling FoFJK, ICntrl=      2127 FMM=F ISym2X=1 I1Cent= 0 IOpClX= 0 NMat=1 NMatS=1 NMatT=0.
 ***** Axes restored to original set *****
 -------------------------------------------------------------------
 Center     Atomic                   Forces (Hartrees/Bohr)
 Number     Number              X              Y              Z
 -------------------------------------------------------------------
      1        8           0.000000000    0.000000000   -0.000069734
      2        1          -0.000171116   -0.000098794    0.000023245
      3        1           0.000171116   -0.000098794    0.000023245
      4        1           0.000000000    0.000197588    0.000023245
 -------------------------------------------------------------------
 Cartesian Forces:  Max     0.000197588 RMS     0.000101491

 GradGradGradGradGradGradGradGradGradGradGradGradGradGradGradGradGradGrad
 Berny optimization.
 Internal  Forces:  Max     0.000196743 RMS     0.000130523
 Search for a local minimum.
 Step number   1 out of a maximum of   20
 All quantities printed in internal units (Hartrees-Bohrs-Radians)
 Mixed Optimization -- En-DIIS/RFO-DIIS
 Second derivative matrix not updated -- first step.
 The second derivative matrix:
                          R1        R2        R3        A1        A2
           R1           0.51050
           R2           0.00000   0.51050
           R3           0.00000   0.00000   0.51050
           A1           0.00000   0.00000   0.00000   0.16000
           A2           0.00000   0.00000   0.00000   0.00000   0.16000
           A3           0.00000   0.00000   0.00000   0.00000   0.00000
           D1           0.00000   0.00000   0.00000   0.00000   0.00000
                          A3        D1
           A3           0.16000
           D1           0.00000   0.01270
 ITU=  0
     Eigenvalues ---    0.04290   0.16000   0.16000   0.51050   0.51050
     Eigenvalues ---    0.51050
 RFO step:  Lambda=-2.90951236D-07 EMin= 4.29007673D-02
 Linear search not attempted -- first point.
 Iteration  1 RMS(Cart)=  0.00041455 RMS(Int)=  0.00000019
 Iteration  2 RMS(Cart)=  0.00000008 RMS(Int)=  0.00000016
 ClnCor:  largest displacement from symmetrization is 1.89D-05 for atom     4.
 Variable       Old X    -DE/DX   Delta X   Delta X   Delta X     New X
                                 (Linear)    (Quad)   (Total)
    R1        1.85521   0.00020   0.00000   0.00039   0.00038   1.85559
    R2        1.85521   0.00020   0.00000   0.00039   0.00038   1.85559
    R3        1.85521   0.00020   0.00000   0.00039   0.00038   1.85559
    A1        1.97818   0.00000   0.00000   0.00029   0.00032   1.97850
    A2        1.97818   0.00002   0.00000   0.00033   0.00032   1.97850
    A3        1.97818   0.00002   0.00000   0.00033   0.00032   1.97850
    D1        2.28657   0.00005   0.00000   0.00105   0.00106   2.28763
         Item               Value     Threshold  Converged?
 Maximum Force            0.000197     0.000450     YES
 RMS     Force            0.000131     0.000300     YES
 Maximum Displacement     0.000554     0.001800     YES
 RMS     Displacement     0.000411     0.001200     YES
 Predicted change in Energy=-1.453874D-07
 Optimization completed.
    -- Stationary point found.
                           ----------------------------
                           !   Optimized Parameters   !
                           ! (Angstroms and Degrees)  !
 --------------------------                            --------------------------
 ! Name  Definition              Value          Derivative Info.                !
 --------------------------------------------------------------------------------
 ! R1    R(1,2)                  0.9817         -DE/DX =    0.0002              !
 ! R2    R(1,3)                  0.9817         -DE/DX =    0.0002              !
 ! R3    R(1,4)                  0.9817         -DE/DX =    0.0002              !
 ! A1    A(2,1,3)              113.3414         -DE/DX =    0.0                 !
 ! A2    A(2,1,4)              113.3414         -DE/DX =    0.0                 !
 ! A3    A(3,1,4)              113.3414         -DE/DX =    0.0                 !
 ! D1    D(2,1,4,3)            131.0108         -DE/DX =    0.0                 !
 --------------------------------------------------------------------------------
 GradGradGradGradGradGradGradGradGradGradGradGradGradGradGradGradGradGrad

                          Input orientation:                          
 ---------------------------------------------------------------------
 Center     Atomic      Atomic             Coordinates (Angstroms)
 Number     Number       Type             X           Y           Z
 ---------------------------------------------------------------------
      1          8           0        0.000000    0.000000   -0.070439
      2          1           0       -0.820264   -0.473580    0.187804
      3          1           0        0.820264   -0.473580    0.187804
      4          1           0        0.000000    0.947159    0.187804
 ---------------------------------------------------------------------
                    Distance matrix (angstroms):
                    1          2          3          4
     1  O    0.000000
     2  H    0.981733   0.000000
     3  H    0.981733   1.640528   0.000000
     4  H    0.981733   1.640528   1.640528   0.000000
 Stoichiometry    H3O(1+)
 Framework group  C3V[C3(O),3SGV(H)]
 Deg. of freedom     2
 Full point group                 C3V     NOp   6
 Largest Abelian subgroup         CS      NOp   2
 Largest concise Abelian subgroup CS      NOp   2
                         Standard orientation:                         
 ---------------------------------------------------------------------
 Center     Atomic      Atomic             Coordinates (Angstroms)
 Number     Number       Type             X           Y           Z
 ---------------------------------------------------------------------
      1          8           0        0.000000    0.000000    0.070430
      2          1           0        0.000000    0.947159   -0.187813
      3          1           0        0.820264   -0.473580   -0.187813
      4          1           0       -0.820264   -0.473580   -0.187813
 ---------------------------------------------------------------------
 Rotational constants (GHZ):    331.2278118    331.2278118    186.3222719
 1\1\GINC-NISER-THINKCENTRE-M93P\FOpt\RB3LYP\6-31G(d,p)\H3O1(1+)\STUDEN
 T\01-Mar-2021\0\\# freq opt b3lyp/6-31g**\\Title Card Required\\1,1\O,
 0.,0.0000000009,-0.07043891\H,-0.820263988,-0.4735796334,0.18780402\H,
 0.820263988,-0.4735796334,0.18780402\H,0.,0.9471592695,0.18780402\\Ver
 sion=EM64L-G09RevC.01\State=1-A1\HF=-76.7056363\RMSD=4.795e-09\RMSF=1.
 015e-04\Dipole=0.,0.,0.5891387\Quadrupole=0.9368837,0.9368837,-1.87376
 75,0.,0.,0.\PG=C03V [C3(O1),3SGV(H1)]\\@


 REALITY IS FOR PEOPLE WHO CAN'T FACE SCIENCE FICTION.
 Job cpu time:  0 days  0 hours  0 minutes  1.0 seconds.
 File lengths (MBytes):  RWF=      5 Int=      0 D2E=      0 Chk=      1 Scr=      1
 Normal termination of Gaussian 09 at Mon Mar  1 16:34:32 2021.
 Link1:  Proceeding to internal job step number  2.
 ----------------------------------------------------------------------
 #N Geom=AllCheck Guess=TCheck SCRF=Check GenChk RB3LYP/6-31G(d,p) Freq
 ----------------------------------------------------------------------
 1/10=4,29=7,30=1,38=1,40=1/1,3;
 2/12=2,40=1/2;
 3/5=1,6=6,7=101,11=2,14=-4,16=1,25=1,30=1,70=2,71=2,74=-5,116=1/1,2,3;
 4/5=101/1;
 5/5=2,98=1/2;
 8/6=4,10=90,11=11/1;
 11/6=1,8=1,9=11,15=111,16=1/1,2,10;
 10/6=1/2;
 6/7=2,8=2,9=2,10=2,18=1,28=1/1;
 7/8=1,10=1,25=1/1,2,3,16;
 1/10=4,30=1/3;
 99//99;
 Structure from the checkpoint file:  h3_b3l2.chk
 -------------------
 Title Card Required
 -------------------
 Charge =  1 Multiplicity = 1
 Redundant internal coordinates found in file.
 O,0,0.,0.0000000009,-0.07043891
 H,0,-0.820263988,-0.4735796334,0.18780402
 H,0,0.820263988,-0.4735796334,0.18780402
 H,0,0.,0.9471592695,0.18780402
 Recover connectivity data from disk.

 GradGradGradGradGradGradGradGradGradGradGradGradGradGradGradGradGradGrad
 Berny optimization.
 Initialization pass.
                           ----------------------------
                           !    Initial Parameters    !
                           ! (Angstroms and Degrees)  !
 --------------------------                            --------------------------
 ! Name  Definition              Value          Derivative Info.                !
 --------------------------------------------------------------------------------
 ! R1    R(1,2)                  0.9817         calculate D2E/DX2 analytically  !
 ! R2    R(1,3)                  0.9817         calculate D2E/DX2 analytically  !
 ! R3    R(1,4)                  0.9817         calculate D2E/DX2 analytically  !
 ! A1    A(2,1,3)              113.3414         calculate D2E/DX2 analytically  !
 ! A2    A(2,1,4)              113.3414         calculate D2E/DX2 analytically  !
 ! A3    A(3,1,4)              113.3414         calculate D2E/DX2 analytically  !
 ! D1    D(2,1,4,3)            131.0108         calculate D2E/DX2 analytically  !
 --------------------------------------------------------------------------------
 Trust Radius=3.00D-01 FncErr=1.00D-07 GrdErr=1.00D-07
 Number of steps in this run=      2 maximum allowed number of steps=      2.
 GradGradGradGradGradGradGradGradGradGradGradGradGradGradGradGradGradGrad

                          Input orientation:                          
 ---------------------------------------------------------------------
 Center     Atomic      Atomic             Coordinates (Angstroms)
 Number     Number       Type             X           Y           Z
 ---------------------------------------------------------------------
      1          8           0        0.000000    0.000000   -0.070439
      2          1           0       -0.820264   -0.473580    0.187804
      3          1           0        0.820264   -0.473580    0.187804
      4          1           0        0.000000    0.947159    0.187804
 ---------------------------------------------------------------------
                    Distance matrix (angstroms):
                    1          2          3          4
     1  O    0.000000
     2  H    0.981733   0.000000
     3  H    0.981733   1.640528   0.000000
     4  H    0.981733   1.640528   1.640528   0.000000
 Stoichiometry    H3O(1+)
 Framework group  C3V[C3(O),3SGV(H)]
 Deg. of freedom     2
 Full point group                 C3V     NOp   6
 Largest Abelian subgroup         CS      NOp   2
 Largest concise Abelian subgroup CS      NOp   2
                         Standard orientation:                         
 ---------------------------------------------------------------------
 Center     Atomic      Atomic             Coordinates (Angstroms)
 Number     Number       Type             X           Y           Z
 ---------------------------------------------------------------------
      1          8           0        0.000000    0.000000    0.070430
      2          1           0        0.000000    0.947159   -0.187813
      3          1           0        0.820264   -0.473580   -0.187813
      4          1           0       -0.820264   -0.473580   -0.187813
 ---------------------------------------------------------------------
 Rotational constants (GHZ):    331.2278118    331.2278118    186.3222719
 Standard basis: 6-31G(d,p) (6D, 7F)
 There are    20 symmetry adapted basis functions of A'  symmetry.
 There are    10 symmetry adapted basis functions of A"  symmetry.
 Integral buffers will be    131072 words long.
 Raffenetti 2 integral format.
 Two-electron integral symmetry is turned on.
    30 basis functions,    49 primitive gaussians,    30 cartesian basis functions
     5 alpha electrons        5 beta electrons
       nuclear repulsion energy        13.9042580595 Hartrees.
 NAtoms=    4 NActive=    4 NUniq=    2 SFac= 4.00D+00 NAtFMM=   60 NAOKFM=F Big=F
 One-electron integrals computed using PRISM.
 NBasis=    30 RedAO= T  NBF=    20    10
 NBsUse=    30 1.00D-06 NBFU=    20    10
 Initial guess read from the checkpoint file:  h3_b3l2.chk
 B after Tr=     0.000000    0.000000    0.000000
         Rot=    1.000000    0.000000    0.000000    0.000000 Ang=   0.00 deg.
 Initial guess orbital symmetries:
       Occupied  (A1) (A1) (E) (E) (A1)
       Virtual   (A1) (E) (E) (E) (E) (A1) (A1) (E) (E) (A1) (E)
                 (E) (A1) (A2) (E) (E) (E) (E) (A1) (E) (E) (A1)
                 (E) (E) (A1)
 Requested convergence on RMS density matrix=1.00D-08 within 128 cycles.
 Requested convergence on MAX density matrix=1.00D-06.
 Requested convergence on             energy=1.00D-06.
 No special actions if energy rises.
 Keep R1 ints in memory in canonical form, NReq=1021027.
 SCF Done:  E(RB3LYP) =  -76.7056362547     A.U. after    1 cycles
             Convg  =    0.3550D-09             -V/T =  2.0092
 Range of M.O.s used for correlation:     1    30
 NBasis=    30 NAE=     5 NBE=     5 NFC=     0 NFV=     0
 NROrb=     30 NOA=     5 NOB=     5 NVA=    25 NVB=    25
 Symmetrizing basis deriv contribution to polar:
 IMax=3 JMax=2 DiffMx= 0.00D+00
 G2DrvN: will do     5 centers at a time, making    1 passes doing MaxLOS=2.
 Calling FoFCou, ICntrl=  3107 FMM=F I1Cent=   0 AccDes= 0.00D+00.
 FoFDir/FoFCou used for L=0 through L=2.
 End of G2Drv Frequency-dependent properties file   721 does not exist.
 End of G2Drv Frequency-dependent properties file   722 does not exist.
          IDoAtm=1111
          Differentiating once with respect to electric field.
                with respect to dipole field.
          Differentiating once with respect to nuclear coordinates.
          Keep R1 ints in memory in canonical form, NReq=929794.
          There are     9 degrees of freedom in the 1st order CPHF.  IDoFFX=4.
      9 vectors produced by pass  0 Test12= 1.39D-15 1.11D-08 XBig12= 1.93D+00 8.93D-01.
 AX will form     9 AO Fock derivatives at one time.
      9 vectors produced by pass  1 Test12= 1.39D-15 1.11D-08 XBig12= 7.87D-02 1.11D-01.
      9 vectors produced by pass  2 Test12= 1.39D-15 1.11D-08 XBig12= 3.14D-04 8.56D-03.
      9 vectors produced by pass  3 Test12= 1.39D-15 1.11D-08 XBig12= 6.14D-07 4.74D-04.
      9 vectors produced by pass  4 Test12= 1.39D-15 1.11D-08 XBig12= 2.48D-10 6.05D-06.
      3 vectors produced by pass  5 Test12= 1.39D-15 1.11D-08 XBig12= 6.60D-14 1.26D-07.
 Inverted reduced A of dimension    48 with in-core refinement.
 Isotropic polarizability for W=    0.000000        4.78 Bohr**3.
 End of Minotr Frequency-dependent properties file   721 does not exist.
 End of Minotr Frequency-dependent properties file   722 does not exist.

 **********************************************************************

            Population analysis using the SCF density.

 **********************************************************************

 Orbital symmetries:
       Occupied  (A1) (A1) (E) (E) (A1)
       Virtual   (A1) (E) (E) (E) (E) (A1) (A1) (E) (E) (A1) (E)
                 (E) (A1) (A2) (E) (E) (E) (E) (A1) (E) (E) (A1)
                 (E) (E) (A1)
 The electronic state is 1-A1.
 Alpha  occ. eigenvalues --  -19.59087  -1.45037  -0.93887  -0.93887  -0.73828
 Alpha virt. eigenvalues --   -0.26454  -0.16211  -0.16211   0.40709   0.40709
 Alpha virt. eigenvalues --    0.44750   0.50515   0.62853   0.62853   0.87461
 Alpha virt. eigenvalues --    1.06771   1.06771   1.64287   1.70119   1.89664
 Alpha virt. eigenvalues --    1.89664   2.13820   2.13820   2.29330   2.67659
 Alpha virt. eigenvalues --    2.67659   2.88729   3.07720   3.07720   3.59725
          Condensed to atoms (all electrons):
              1          2          3          4
     1  O    7.477629   0.301300   0.301300   0.301300
     2  H    0.301300   0.260628  -0.011219  -0.011219
     3  H    0.301300  -0.011219   0.260628  -0.011219
     4  H    0.301300  -0.011219  -0.011219   0.260628
 Mulliken atomic charges:
              1
     1  O   -0.381529
     2  H    0.460510
     3  H    0.460510
     4  H    0.460510
 Sum of Mulliken atomic charges =   1.00000
 Mulliken charges with hydrogens summed into heavy atoms:
              1
     1  O    1.000000
 Sum of Mulliken charges with hydrogens summed into heavy atoms =   1.00000
 APT atomic charges:
              1
     1  O   -0.446911
     2  H    0.482303
     3  H    0.482303
     4  H    0.482303
 Sum of APT charges=   1.00000
 APT Atomic charges with hydrogens summed into heavy atoms:
              1
     1  O    0.999999
     2  H    0.000000
     3  H    0.000000
     4  H    0.000000
 Sum of APT charges=   1.00000
 Electronic spatial extent (au):  <R**2>=             18.2922
 Charge=              1.0000 electrons
 Dipole moment (field-independent basis, Debye):
    X=              0.0000    Y=              0.0000    Z=             -1.4974  Tot=              1.4974
 Quadrupole moment (field-independent basis, Debye-Ang):
   XX=             -2.3991   YY=             -2.3991   ZZ=             -6.1795
   XY=              0.0000   XZ=              0.0000   YZ=              0.0000
 Traceless Quadrupole moment (field-independent basis, Debye-Ang):
   XX=              1.2601   YY=              1.2601   ZZ=             -2.5203
   XY=              0.0000   XZ=              0.0000   YZ=              0.0000
 Octapole moment (field-independent basis, Debye-Ang**2):
  XXX=              0.0000  YYY=              1.7571  ZZZ=             -0.7210  XYY=              0.0000
  XXY=             -1.7571  XXZ=             -0.8918  XZZ=              0.0000  YZZ=              0.0000
  YYZ=             -0.8918  XYZ=              0.0000
 Hexadecapole moment (field-independent basis, Debye-Ang**3):
 XXXX=             -3.0382 YYYY=             -3.0382 ZZZZ=             -4.5850 XXXY=              0.0000
 XXXZ=              0.0000 YYYX=              0.0000 YYYZ=             -0.3850 ZZZX=              0.0000
 ZZZY=              0.0000 XXYY=             -1.0127 XXZZ=             -1.5892 YYZZ=             -1.5892
 XXYZ=              0.3850 YYXZ=              0.0000 ZZXY=              0.0000
 N-N= 1.390425805947D+01 E-N=-2.044503097862D+02  KE= 7.600454875003D+01
 Symmetry A'   KE= 7.212081958204D+01
 Symmetry A"   KE= 3.883729167995D+00
  Exact polarizability:   5.608   0.000   5.608   0.000   0.000   3.116
 Approx polarizability:   6.800   0.000   6.800   0.000   0.000   3.619
 Calling FoFJK, ICntrl=    100127 FMM=F ISym2X=1 I1Cent= 0 IOpClX= 0 NMat=1 NMatS=1 NMatT=0.
 Full mass-weighted force constant matrix:
 Low frequencies ---  -63.2705  -63.2637  -52.5659   -0.0021    0.0074    0.0505
 Low frequencies ---  783.5373 1668.5258 1668.5259
 Harmonic frequencies (cm**-1), IR intensities (KM/Mole), Raman scattering
 activities (A**4/AMU), depolarization ratios for plane and unpolarized
 incident light, reduced masses (AMU), force constants (mDyne/A),
 and normal coordinates:
                     1                      2                      3
                    A1                      E                      E
 Frequencies --   783.5373              1668.5258              1668.5259
 Red. masses --     1.1722                 1.0682                 1.0682
 Frc consts  --     0.4240                 1.7521                 1.7521
 IR Inten    --   548.7058               121.8437               121.8424
  Atom  AN      X      Y      Z        X      Y      Z        X      Y      Z
     1   8     0.00   0.00   0.10     0.00   0.06   0.00    -0.06   0.00   0.00
     2   1     0.00  -0.15  -0.55     0.00   0.11   0.18     0.79   0.00   0.00
     3   1    -0.13   0.08  -0.55    -0.39  -0.56  -0.09     0.11   0.39  -0.16
     4   1     0.13   0.08  -0.55     0.39  -0.56  -0.09     0.11  -0.39   0.16
                     4                      5                      6
                    A1                      E                      E
 Frequencies --  3586.4210              3705.3930              3705.3932
 Red. masses --     1.0167                 1.0906                 1.0906
 Frc consts  --     7.7050                 8.8224                 8.8224
 IR Inten    --    40.3411               503.7491               503.7454
  Atom  AN      X      Y      Z        X      Y      Z        X      Y      Z
     1   8     0.00   0.00   0.02     0.00   0.07   0.00     0.07   0.00   0.00
     2   1     0.00   0.56  -0.13     0.00  -0.79   0.21     0.00   0.00   0.00
     3   1     0.49  -0.28  -0.13     0.34  -0.20  -0.11    -0.59   0.34   0.19
     4   1    -0.49  -0.28  -0.13    -0.34  -0.20  -0.11    -0.59  -0.34  -0.19

 -------------------
 - Thermochemistry -
 -------------------
 Temperature   298.150 Kelvin.  Pressure   1.00000 Atm.
 Atom     1 has atomic number  8 and mass  15.99491
 Atom     2 has atomic number  1 and mass   1.00783
 Atom     3 has atomic number  1 and mass   1.00783
 Atom     4 has atomic number  1 and mass   1.00783
 Molecular mass:    19.01839 amu.
 Principal axes and moments of inertia in atomic units:
                           1         2         3
     Eigenvalues --     5.44864   5.44864   9.68613
           X           -0.66734   0.74476   0.00000
           Y            0.74476   0.66734   0.00000
           Z            0.00000   0.00000   1.00000
 This molecule is an oblate symmetric top.
 Rotational symmetry number  3.
 Rotational temperatures (Kelvin)     15.89641    15.89641     8.94205
 Rotational constants (GHZ):         331.22781   331.22781   186.32227
 Zero-point vibrational energy      90424.5 (Joules/Mol)
                                   21.61197 (Kcal/Mol)
 Vibrational temperatures:   1127.33  2400.63  2400.63  5160.05  5331.23
          (Kelvin)           5331.23
 
 Zero-point correction=                           0.034441 (Hartree/Particle)
 Thermal correction to Energy=                    0.037362
 Thermal correction to Enthalpy=                  0.038306
 Thermal correction to Gibbs Free Energy=         0.016332
 Sum of electronic and zero-point Energies=            -76.671195
 Sum of electronic and thermal Energies=               -76.668275
 Sum of electronic and thermal Enthalpies=             -76.667331
 Sum of electronic and thermal Free Energies=          -76.689304
 
                     E (Thermal)             CV                S
                      KCal/Mol        Cal/Mol-Kelvin    Cal/Mol-Kelvin
 Total                   23.445              6.722             46.248
 Electronic               0.000              0.000              0.000
 Translational            0.889              2.981             34.771
 Rotational               0.889              2.981             11.245
 Vibrational             21.667              0.760              0.233
                       Q            Log10(Q)             Ln(Q)
 Total Bot       0.307559D-07         -7.512072        -17.297185
 Total V=0       0.213598D+09          8.329596         19.179605
 Vib (Bot)       0.147443D-15        -15.831376        -36.453091
 Vib (V=0)       0.102398D+01          0.010292          0.023699
 Electronic      0.100000D+01          0.000000          0.000000
 Translational   0.325999D+07          6.513216         14.997234
 Rotational      0.639865D+02          1.806088          4.158672
 ***** Axes restored to original set *****
 -------------------------------------------------------------------
 Center     Atomic                   Forces (Hartrees/Bohr)
 Number     Number              X              Y              Z
 -------------------------------------------------------------------
      1        8           0.000000000    0.000000000   -0.000069736
      2        1          -0.000171115   -0.000098793    0.000023245
      3        1           0.000171115   -0.000098793    0.000023245
      4        1           0.000000000    0.000197586    0.000023245
 -------------------------------------------------------------------
 Cartesian Forces:  Max     0.000197586 RMS     0.000101491

 GradGradGradGradGradGradGradGradGradGradGradGradGradGradGradGradGradGrad
 Berny optimization.
 Internal  Forces:  Max     0.000196742 RMS     0.000130522
 Search for a local minimum.
 Step number   1 out of a maximum of    2
 All quantities printed in internal units (Hartrees-Bohrs-Radians)
 Second derivative matrix not updated -- analytic derivatives used.
 The second derivative matrix:
                          R1        R2        R3        A1        A2
           R1           0.48293
           R2           0.00112   0.48293
           R3           0.00112   0.00112   0.48293
           A1           0.00247   0.00247  -0.00440   0.06245
           A2           0.00764  -0.00041   0.00842  -0.04350   0.09915
           A3          -0.00041   0.00764   0.00842  -0.04350  -0.02950
           D1           0.01042   0.01042   0.00960   0.00773   0.00318
                          A3        D1
           A3           0.09915
           D1           0.00318   0.01717
 ITU=  0
     Eigenvalues ---    0.02070   0.12732   0.12847   0.48197   0.48199
     Eigenvalues ---    0.48624
 Angle between quadratic step and forces=  62.10 degrees.
 Linear search not attempted -- first point.
 Iteration  1 RMS(Cart)=  0.00051507 RMS(Int)=  0.00000042
 Iteration  2 RMS(Cart)=  0.00000018 RMS(Int)=  0.00000036
 ClnCor:  largest displacement from symmetrization is 5.08D-08 for atom     4.
 Variable       Old X    -DE/DX   Delta X   Delta X   Delta X     New X
                                 (Linear)    (Quad)   (Total)
    R1        1.85521   0.00020   0.00000   0.00036   0.00036   1.85557
    R2        1.85521   0.00020   0.00000   0.00036   0.00036   1.85557
    R3        1.85521   0.00020   0.00000   0.00036   0.00036   1.85557
    A1        1.97818   0.00000   0.00000   0.00048   0.00048   1.97866
    A2        1.97818   0.00002   0.00000   0.00048   0.00048   1.97866
    A3        1.97818   0.00002   0.00000   0.00048   0.00048   1.97866
    D1        2.28657   0.00005   0.00000   0.00160   0.00160   2.28817
         Item               Value     Threshold  Converged?
 Maximum Force            0.000197     0.000450     YES
 RMS     Force            0.000131     0.000300     YES
 Maximum Displacement     0.000705     0.001800     YES
 RMS     Displacement     0.000515     0.001200     YES
 Predicted change in Energy=-1.542486D-07
 Optimization completed.
    -- Stationary point found.
                           ----------------------------
                           !   Optimized Parameters   !
                           ! (Angstroms and Degrees)  !
 --------------------------                            --------------------------
 ! Name  Definition              Value          Derivative Info.                !
 --------------------------------------------------------------------------------
 ! R1    R(1,2)                  0.9817         -DE/DX =    0.0002              !
 ! R2    R(1,3)                  0.9817         -DE/DX =    0.0002              !
 ! R3    R(1,4)                  0.9817         -DE/DX =    0.0002              !
 ! A1    A(2,1,3)              113.3414         -DE/DX =    0.0                 !
 ! A2    A(2,1,4)              113.3414         -DE/DX =    0.0                 !
 ! A3    A(3,1,4)              113.3414         -DE/DX =    0.0                 !
 ! D1    D(2,1,4,3)            131.0108         -DE/DX =    0.0                 !
 --------------------------------------------------------------------------------
 GradGradGradGradGradGradGradGradGradGradGradGradGradGradGradGradGradGrad

 1\1\GINC-NISER-THINKCENTRE-M93P\Freq\RB3LYP\6-31G(d,p)\H3O1(1+)\STUDEN
 T\01-Mar-2021\0\\#N Geom=AllCheck Guess=TCheck SCRF=Check GenChk RB3LY
 P/6-31G(d,p) Freq\\Title Card Required\\1,1\O,0.,0.0000000009,-0.07043
 891\H,-0.820263988,-0.4735796334,0.18780402\H,0.820263988,-0.473579633
 4,0.18780402\H,0.,0.9471592695,0.18780402\\Version=EM64L-G09RevC.01\St
 ate=1-A1\HF=-76.7056363\RMSD=3.550e-10\RMSF=1.015e-04\ZeroPoint=0.0344
 409\Thermal=0.0373616\Dipole=0.,0.,0.5891388\DipoleDeriv=-0.471238,-0.
 0000034,-0.0000043,-0.0000034,-0.4712341,-0.0000025,-0.0000013,-0.0000
 008,-0.3982607,0.5489223,0.1013421,-0.0078061,0.1013421,0.4319025,-0.0
 045068,0.001369,0.0007904,0.4660839,0.5489226,-0.1013413,0.007808,-0.1
 013413,0.4319016,-0.0045077,-0.0013692,0.0007915,0.4660862,0.3733927,0
 .0000009,0.0000002,0.0000009,0.6074315,0.0090158,0.0000008,-0.0015815,
 0.4660862\Polar=5.607799,0.0000144,5.6077824,-0.0000241,-0.0000139,3.1
 160596\PG=C03V [C3(O1),3SGV(H1)]\NImag=0\\0.77482112,-0.00000073,0.774
 82196,-0.00000123,-0.00000071,0.12829369,-0.34753392,-0.15460284,0.087
 22992,0.35614747,-0.15460284,-0.16901394,0.05036222,0.16993144,0.15992
 754,0.12202545,0.07045142,-0.04276497,-0.09786396,-0.05650178,0.039763
 89,-0.34753376,0.15460317,-0.08722938,-0.01758176,0.01524482,-0.011598
 62,0.35614747,0.15460289,-0.16901397,0.05036199,-0.01524482,0.01781819
 ,-0.00780978,-0.16993144,0.15992754,-0.12202492,0.07045122,-0.04276467
 ,0.01159862,-0.00780978,0.00150054,0.09786396,-0.05650178,0.03976389,-
 0.07975377,0.00000004,0.00000007,0.00896820,-0.03057345,-0.01256277,0.
 00896820,0.03057345,0.01256277,0.06181758,0.00000032,-0.43679396,-0.10
 072385,-0.00008381,-0.00873177,-0.00613981,0.00008381,-0.00873177,-0.0
 0613981,0.,0.45425743,0.00000009,-0.14090229,-0.04276467,-0.00096416,0
 .01394959,0.00150054,0.00096416,0.01394959,0.00150054,0.,0.11300356,0.
 03976389\\0.,0.,0.00006974,0.00017111,0.00009879,-0.00002325,-0.000171
 11,0.00009879,-0.00002325,0.,-0.00019759,-0.00002325\\\@


 FROM THE ASHES OF OUR DESPAIR GROW THE FLOWERS OF TOMORROW.
 Job cpu time:  0 days  0 hours  0 minutes  2.1 seconds.
 File lengths (MBytes):  RWF=      5 Int=      0 D2E=      0 Chk=      1 Scr=      1
 Normal termination of Gaussian 09 at Mon Mar  1 16:34:34 2021.
