 Entering Gaussian System, Link 0=g09
 Input=/home/student/singh/h3_b33.com
 Output=/home/student/singh/h3_b33.log
 Initial command:
 /home/student/g09/l1.exe /home/student/singh/Gau-15993.inp -scrdir=/home/student/singh/
 Entering Link 1 = /home/student/g09/l1.exe PID=     15997.
  
 Copyright (c) 1988,1990,1992,1993,1995,1998,2003,2009,2011,
            Gaussian, Inc.  All Rights Reserved.
  
 This is part of the Gaussian(R) 09 program.  It is based on
 the Gaussian(R) 03 system (copyright 2003, Gaussian, Inc.),
 the Gaussian(R) 98 system (copyright 1998, Gaussian, Inc.),
 the Gaussian(R) 94 system (copyright 1995, Gaussian, Inc.),
 the Gaussian 92(TM) system (copyright 1992, Gaussian, Inc.),
 the Gaussian 90(TM) system (copyright 1990, Gaussian, Inc.),
 the Gaussian 88(TM) system (copyright 1988, Gaussian, Inc.),
 the Gaussian 86(TM) system (copyright 1986, Carnegie Mellon
 University), and the Gaussian 82(TM) system (copyright 1983,
 Carnegie Mellon University). Gaussian is a federally registered
 trademark of Gaussian, Inc.
  
 This software contains proprietary and confidential information,
 including trade secrets, belonging to Gaussian, Inc.
  
 This software is provided under written license and may be
 used, copied, transmitted, or stored only in accord with that
 written license.
  
 The following legend is applicable only to US Government
 contracts under FAR:
  
                    RESTRICTED RIGHTS LEGEND
  
 Use, reproduction and disclosure by the US Government is
 subject to restrictions as set forth in subparagraphs (a)
 and (c) of the Commercial Computer Software - Restricted
 Rights clause in FAR 52.227-19.
  
 Gaussian, Inc.
 340 Quinnipiac St., Bldg. 40, Wallingford CT 06492
  
  
 ---------------------------------------------------------------
 Warning -- This program may not be used in any manner that
 competes with the business of Gaussian, Inc. or will provide
 assistance to any competitor of Gaussian, Inc.  The licensee
 of this program is prohibited from giving any competitor of
 Gaussian, Inc. access to this program.  By using this program,
 the user acknowledges that Gaussian, Inc. is engaged in the
 business of creating and licensing software in the field of
 computational chemistry and represents and warrants to the
 licensee that it is not a competitor of Gaussian, Inc. and that
 it will not use this program in any manner prohibited above.
 ---------------------------------------------------------------
  

 Cite this work as:
 Gaussian 09, Revision C.01,
 M. J. Frisch, G. W. Trucks, H. B. Schlegel, G. E. Scuseria, 
 M. A. Robb, J. R. Cheeseman, G. Scalmani, V. Barone, B. Mennucci, 
 G. A. Petersson, H. Nakatsuji, M. Caricato, X. Li, H. P. Hratchian, 
 A. F. Izmaylov, J. Bloino, G. Zheng, J. L. Sonnenberg, M. Hada, 
 M. Ehara, K. Toyota, R. Fukuda, J. Hasegawa, M. Ishida, T. Nakajima, 
 Y. Honda, O. Kitao, H. Nakai, T. Vreven, J. A. Montgomery, Jr., 
 J. E. Peralta, F. Ogliaro, M. Bearpark, J. J. Heyd, E. Brothers, 
 K. N. Kudin, V. N. Staroverov, T. Keith, R. Kobayashi, J. Normand, 
 K. Raghavachari, A. Rendell, J. C. Burant, S. S. Iyengar, J. Tomasi, 
 M. Cossi, N. Rega, J. M. Millam, M. Klene, J. E. Knox, J. B. Cross, 
 V. Bakken, C. Adamo, J. Jaramillo, R. Gomperts, R. E. Stratmann, 
 O. Yazyev, A. J. Austin, R. Cammi, C. Pomelli, J. W. Ochterski, 
 R. L. Martin, K. Morokuma, V. G. Zakrzewski, G. A. Voth, 
 P. Salvador, J. J. Dannenberg, S. Dapprich, A. D. Daniels, 
 O. Farkas, J. B. Foresman, J. V. Ortiz, J. Cioslowski, 
 and D. J. Fox, Gaussian, Inc., Wallingford CT, 2010.
 
 ******************************************
 Gaussian 09:  EM64L-G09RevC.01 23-Sep-2011
                 1-Mar-2021 
 ******************************************
 %chk=h3_b33.chk
 ----------------------------------------------------------------------
 # freq rb3lyp/6-31g(d,p) scrf=check guess=tcheck geom=(connectivity,al
 lcheck) genchk
 ----------------------------------------------------------------------
 1/10=4,29=7,30=1,38=1,40=1,57=2/1,3;
 2/12=2,40=1/2;
 3/5=1,6=6,7=101,11=2,14=-4,16=1,25=1,30=1,70=2,71=2,74=-5,116=1/1,2,3;
 4/5=101/1;
 5/5=2,98=1/2;
 8/6=4,10=90,11=11/1;
 11/6=1,8=1,9=11,15=111,16=1/1,2,10;
 10/6=1/2;
 6/7=2,8=2,9=2,10=2,18=1,28=1/1;
 7/8=1,10=1,25=1/1,2,3,16;
 1/10=4,30=1/3;
 99//99;
 Structure from the checkpoint file:  h3_b33.chk
 FileIO operation on non-existent file.
FileIO: IOper= 2 IFilNo(1)=-20502 Len=         100 IPos=           4 Q=         99891904


 dumping /fiocom/, unit = 1 NFiles =    14 SizExt =    524288 WInBlk =       512
                   defal = T LstWrd =      596480 FType=2 FMxFil=10000

 Number           0        501        502        598        989        991        992        993
 Base        180224      43520      72192      76800      44544      65536      65024      43008
 End         596480      44520      76297      76802      64544      72098      65033      43208
 End1        596480      44544      76800      77312      65024      72192      65536      43520
 Wr Pntr     180224      43520      72192      76800      44544      65536      65024      43008
 Rd Pntr     180224      43520      72192      76800      44544      72098      65033      43208
 Length      416256       1000       4105          2      20000       6562          9        200

 Number         994        995        996        997        998        999
 Base         40448      42496      41472      41984      40960      77312
 End          40478      42516      41672      42058      41160     179816
 End1         40960      43008      41984      42496      41472     180224
 Wr Pntr      40448      42496      41472      41984      40960      77312
 Rd Pntr      40478      42516      41672      42055      41160      79816
 Length          30         20        200         74        200     102504


 dumping /fiocom/, unit = 2 NFiles =     1 SizExt =         0 WInBlk =       512
                   defal = F LstWrd =       65536 FType=2 FMxFil=10000

 Number           0
 Base         40448
 End          65536
 End1         65536
 Wr Pntr      40448
 Rd Pntr      40448
 Length       25088


 dumping /fiocom/, unit = 3 NFiles =     1 SizExt =    524288 WInBlk =       512
                   defal = T LstWrd =       65536 FType=2 FMxFil=10000

 Number           0
 Base         40448
 End          65536
 End1         65536
 Wr Pntr      40448
 Rd Pntr      40448
 Length       25088
 Error termination in NtrErr:
 NtrErr Called from FileIO.
