 Entering Gaussian System, Link 0=g09
 Input=h3_b3l.com
 Output=h3_b3l.log
 Initial command:
 /home/student/g09/l1.exe /home/student/singh/Gau-15951.inp -scrdir=/home/student/singh/
 Entering Link 1 = /home/student/g09/l1.exe PID=     15954.
  
 Copyright (c) 1988,1990,1992,1993,1995,1998,2003,2009,2011,
            Gaussian, Inc.  All Rights Reserved.
  
 This is part of the Gaussian(R) 09 program.  It is based on
 the Gaussian(R) 03 system (copyright 2003, Gaussian, Inc.),
 the Gaussian(R) 98 system (copyright 1998, Gaussian, Inc.),
 the Gaussian(R) 94 system (copyright 1995, Gaussian, Inc.),
 the Gaussian 92(TM) system (copyright 1992, Gaussian, Inc.),
 the Gaussian 90(TM) system (copyright 1990, Gaussian, Inc.),
 the Gaussian 88(TM) system (copyright 1988, Gaussian, Inc.),
 the Gaussian 86(TM) system (copyright 1986, Carnegie Mellon
 University), and the Gaussian 82(TM) system (copyright 1983,
 Carnegie Mellon University). Gaussian is a federally registered
 trademark of Gaussian, Inc.
  
 This software contains proprietary and confidential information,
 including trade secrets, belonging to Gaussian, Inc.
  
 This software is provided under written license and may be
 used, copied, transmitted, or stored only in accord with that
 written license.
  
 The following legend is applicable only to US Government
 contracts under FAR:
  
                    RESTRICTED RIGHTS LEGEND
  
 Use, reproduction and disclosure by the US Government is
 subject to restrictions as set forth in subparagraphs (a)
 and (c) of the Commercial Computer Software - Restricted
 Rights clause in FAR 52.227-19.
  
 Gaussian, Inc.
 340 Quinnipiac St., Bldg. 40, Wallingford CT 06492
  
  
 ---------------------------------------------------------------
 Warning -- This program may not be used in any manner that
 competes with the business of Gaussian, Inc. or will provide
 assistance to any competitor of Gaussian, Inc.  The licensee
 of this program is prohibited from giving any competitor of
 Gaussian, Inc. access to this program.  By using this program,
 the user acknowledges that Gaussian, Inc. is engaged in the
 business of creating and licensing software in the field of
 computational chemistry and represents and warrants to the
 licensee that it is not a competitor of Gaussian, Inc. and that
 it will not use this program in any manner prohibited above.
 ---------------------------------------------------------------
  

 Cite this work as:
 Gaussian 09, Revision C.01,
 M. J. Frisch, G. W. Trucks, H. B. Schlegel, G. E. Scuseria, 
 M. A. Robb, J. R. Cheeseman, G. Scalmani, V. Barone, B. Mennucci, 
 G. A. Petersson, H. Nakatsuji, M. Caricato, X. Li, H. P. Hratchian, 
 A. F. Izmaylov, J. Bloino, G. Zheng, J. L. Sonnenberg, M. Hada, 
 M. Ehara, K. Toyota, R. Fukuda, J. Hasegawa, M. Ishida, T. Nakajima, 
 Y. Honda, O. Kitao, H. Nakai, T. Vreven, J. A. Montgomery, Jr., 
 J. E. Peralta, F. Ogliaro, M. Bearpark, J. J. Heyd, E. Brothers, 
 K. N. Kudin, V. N. Staroverov, T. Keith, R. Kobayashi, J. Normand, 
 K. Raghavachari, A. Rendell, J. C. Burant, S. S. Iyengar, J. Tomasi, 
 M. Cossi, N. Rega, J. M. Millam, M. Klene, J. E. Knox, J. B. Cross, 
 V. Bakken, C. Adamo, J. Jaramillo, R. Gomperts, R. E. Stratmann, 
 O. Yazyev, A. J. Austin, R. Cammi, C. Pomelli, J. W. Ochterski, 
 R. L. Martin, K. Morokuma, V. G. Zakrzewski, G. A. Voth, 
 P. Salvador, J. J. Dannenberg, S. Dapprich, A. D. Daniels, 
 O. Farkas, J. B. Foresman, J. V. Ortiz, J. Cioslowski, 
 and D. J. Fox, Gaussian, Inc., Wallingford CT, 2010.
 
 ******************************************
 Gaussian 09:  EM64L-G09RevC.01 23-Sep-2011
                 1-Mar-2021 
 ******************************************
 %chk=h3_b3l.chk
 ------------------------------------------
 # opt freq B3LYP/6-31g** geom=connectivity
 ------------------------------------------
 1/14=-1,18=20,19=15,26=3,38=1,57=2/1,3;
 2/9=110,12=2,17=6,18=5,40=1/2;
 3/5=1,6=6,7=101,11=2,16=1,25=1,30=1,71=1,74=-5/1,2,3;
 4//1;
 5/5=2,38=5/2;
 6/7=2,8=2,9=2,10=2,28=1/1;
 7//1,2,3,16;
 1/14=-1,18=20,19=15/3(2);
 2/9=110/2;
 99//99;
 2/9=110/2;
 3/5=1,6=6,7=101,11=2,16=1,25=1,30=1,71=1,74=-5/1,2,3;
 4/5=5,16=3/1;
 5/5=2,38=5/2;
 7//1,2,3,16;
 1/14=-1,18=20,19=15/3(-5);
 2/9=110/2;
 6/7=2,8=2,9=2,10=2,19=2,28=1/1;
 99/9=1/99;
 -------------------
 Title Card Required
 -------------------
 Charge =  1 Multiplicity = 1
 Symbolic Z-Matrix:
 O                     0.41315  -0.20479  -0.08086 
 H                     0.       -0.78445   0.56319 
 H                    -1.20201   0.18865   0.29916 
 H                     0.        0.       -1.20699 
 

 GradGradGradGradGradGradGradGradGradGradGradGradGradGradGradGradGradGrad
 Berny optimization.
 Initialization pass.
                           ----------------------------
                           !    Initial Parameters    !
                           ! (Angstroms and Degrees)  !
 --------------------------                            --------------------------
 ! Name  Definition              Value          Derivative Info.                !
 --------------------------------------------------------------------------------
 ! R1    R(1,2)                  0.96           estimate D2E/DX2                !
 ! R2    R(1,3)                  1.7053         estimate D2E/DX2                !
 ! R3    R(1,4)                  1.2169         estimate D2E/DX2                !
 ! A1    A(2,1,3)               65.3016         estimate D2E/DX2                !
 ! A2    A(2,1,4)              125.1968         estimate D2E/DX2                !
 ! A3    A(3,1,4)               81.1314         estimate D2E/DX2                !
 ! D1    D(2,1,4,3)             51.1291         estimate D2E/DX2                !
 --------------------------------------------------------------------------------
 Trust Radius=3.00D-01 FncErr=1.00D-07 GrdErr=1.00D-06
 Number of steps in this run=     20 maximum allowed number of steps=    100.
 GradGradGradGradGradGradGradGradGradGradGradGradGradGradGradGradGradGrad

                          Input orientation:                          
 ---------------------------------------------------------------------
 Center     Atomic      Atomic             Coordinates (Angstroms)
 Number     Number       Type             X           Y           Z
 ---------------------------------------------------------------------
      1          8           0        0.413151   -0.204788   -0.080864
      2          1           0        0.000000   -0.784455    0.563193
      3          1           0       -1.202014    0.188647    0.299162
      4          1           0        0.000000    0.000000   -1.206993
 ---------------------------------------------------------------------
                    Distance matrix (angstroms):
                    1          2          3          4
     1  O    0.000000
     2  H    0.959957   0.000000
     3  H    1.705277   1.568910   0.000000
     4  H    1.216880   1.936215   1.936215   0.000000
 Stoichiometry    H3O(1+)
 Framework group  C1[X(H3O)]
 Deg. of freedom     6
 Full point group                 C1      NOp   1
 Largest Abelian subgroup         C1      NOp   1
 Largest concise Abelian subgroup C1      NOp   1
                         Standard orientation:                         
 ---------------------------------------------------------------------
 Center     Atomic      Atomic             Coordinates (Angstroms)
 Number     Number       Type             X           Y           Z
 ---------------------------------------------------------------------
      1          8           0       -0.197317   -0.082430   -0.060187
      2          1           0        0.373432   -0.728698    0.361831
      3          1           0        1.465497    0.291710   -0.115284
      4          1           0       -0.260390    1.096431    0.234949
 ---------------------------------------------------------------------
 Rotational constants (GHZ):    234.1372373    161.9830341    105.5641557
 Standard basis: 6-31G(d,p) (6D, 7F)
 There are    30 symmetry adapted basis functions of A   symmetry.
 Integral buffers will be    131072 words long.
 Raffenetti 2 integral format.
 Two-electron integral symmetry is turned on.
    30 basis functions,    49 primitive gaussians,    30 cartesian basis functions
     5 alpha electrons        5 beta electrons
       nuclear repulsion energy        11.2553595469 Hartrees.
 NAtoms=    4 NActive=    4 NUniq=    4 SFac= 1.00D+00 NAtFMM=   60 NAOKFM=F Big=F
 One-electron integrals computed using PRISM.
 NBasis=    30 RedAO= T  NBF=    30
 NBsUse=    30 1.00D-06 NBFU=    30
 Harris functional with IExCor=  402 diagonalized for initial guess.
 ExpMin= 1.61D-01 ExpMax= 5.48D+03 ExpMxC= 8.25D+02 IAcc=1 IRadAn=         1 AccDes= 0.00D+00
 HarFok:  IExCor=  402 AccDes= 0.00D+00 IRadAn=         1 IDoV= 1
 ScaDFX=  1.000000  1.000000  1.000000  1.000000
 FoFCou: FMM=F IPFlag=           0 FMFlag=      100000 FMFlg1=           0
         NFxFlg=           0 DoJE=T BraDBF=F KetDBF=T FulRan=T
         Omega=  0.000000  0.000000  1.000000  0.000000  0.000000 ICntrl=     500 IOpCl=  0
         NMat0=    1 NMatS0=    1 NMatT0=    0 NMatD0=    1 NMtDS0=    0 NMtDT0=    0
         I1Cent=           4 NGrid=           0.
 Petite list used in FoFCou.
 Initial guess orbital symmetries:
       Occupied  (A) (A) (A) (A) (A)
       Virtual   (A) (A) (A) (A) (A) (A) (A) (A) (A) (A) (A) (A)
                 (A) (A) (A) (A) (A) (A) (A) (A) (A) (A) (A) (A)
                 (A)
 The electronic state of the initial guess is 1-A.
 Requested convergence on RMS density matrix=1.00D-08 within 128 cycles.
 Requested convergence on MAX density matrix=1.00D-06.
 Requested convergence on             energy=1.00D-06.
 No special actions if energy rises.
 Keep R1 ints in memory in canonical form, NReq=1020939.
 Integral accuracy reduced to 1.0D-05 until final iterations.
 Initial convergence to 1.0D-05 achieved.  Increase integral accuracy.
 SCF Done:  E(RB3LYP) =  -76.5192506458     A.U. after   11 cycles
             Convg  =    0.5554D-08             -V/T =  2.0138

 **********************************************************************

            Population analysis using the SCF density.

 **********************************************************************

 Orbital symmetries:
       Occupied  (A) (A) (A) (A) (A)
       Virtual   (A) (A) (A) (A) (A) (A) (A) (A) (A) (A) (A) (A)
                 (A) (A) (A) (A) (A) (A) (A) (A) (A) (A) (A) (A)
                 (A)
 The electronic state is 1-A.
 Alpha  occ. eigenvalues --  -19.57730  -1.35421  -0.87808  -0.73388  -0.68977
 Alpha virt. eigenvalues --   -0.47056  -0.30803  -0.16194   0.37226   0.41642
 Alpha virt. eigenvalues --    0.47483   0.53984   0.61652   0.72582   0.76676
 Alpha virt. eigenvalues --    1.10291   1.27082   1.28133   1.45161   1.62307
 Alpha virt. eigenvalues --    1.68442   1.78406   1.93438   2.06933   2.25694
 Alpha virt. eigenvalues --    2.32806   2.39564   2.87165   3.07997   3.36829
          Condensed to atoms (all electrons):
              1          2          3          4
     1  O    7.758198   0.272410   0.128758   0.216182
     2  H    0.272410   0.305974   0.006644  -0.011621
     3  H    0.128758   0.006644   0.416796   0.007472
     4  H    0.216182  -0.011621   0.007472   0.279341
 Mulliken atomic charges:
              1
     1  O   -0.375548
     2  H    0.426592
     3  H    0.440330
     4  H    0.508625
 Sum of Mulliken atomic charges =   1.00000
 Mulliken charges with hydrogens summed into heavy atoms:
              1
     1  O    1.000000
 Sum of Mulliken charges with hydrogens summed into heavy atoms =   1.00000
 Electronic spatial extent (au):  <R**2>=             23.8204
 Charge=              1.0000 electrons
 Dipole moment (field-independent basis, Debye):
    X=              3.4713    Y=              1.6984    Z=              1.2868  Tot=              4.0731
 Quadrupole moment (field-independent basis, Debye-Ang):
   XX=             -0.8188   YY=             -1.7670   ZZ=             -6.5546
   XY=             -0.4278   XZ=             -0.1801   YZ=             -0.0922
 Traceless Quadrupole moment (field-independent basis, Debye-Ang):
   XX=              2.2280   YY=              1.2798   ZZ=             -3.5078
   XY=             -0.4278   XZ=             -0.1801   YZ=             -0.0922
 Octapole moment (field-independent basis, Debye-Ang**2):
  XXX=              8.3786  YYY=              2.9318  ZZZ=              0.7650  XYY=             -0.0248
  XXY=              1.5770  XXZ=             -0.2432  XZZ=              0.2491  YZZ=             -0.0139
  YYZ=              1.4326  XYZ=             -0.5295
 Hexadecapole moment (field-independent basis, Debye-Ang**3):
 XXXX=             -0.3747 YYYY=             -2.9893 ZZZZ=             -5.5193 XXXY=              1.9441
 XXXZ=             -0.8100 YYYX=             -1.8136 YYYZ=              0.5049 ZZZX=              0.1400
 ZZZY=             -0.1435 XXYY=             -2.6300 XXZZ=             -2.9921 YYZZ=             -1.9386
 XXYZ=             -0.2982 YYXZ=             -0.0076 ZZXY=             -0.2879
 N-N= 1.125535954693D+01 E-N=-1.992255318596D+02  KE= 7.547886703035D+01
 Calling FoFJK, ICntrl=      2127 FMM=F ISym2X=0 I1Cent= 0 IOpClX= 0 NMat=1 NMatS=1 NMatT=0.
 ***** Axes restored to original set *****
 -------------------------------------------------------------------
 Center     Atomic                   Forces (Hartrees/Bohr)
 Number     Number              X              Y              Z
 -------------------------------------------------------------------
      1        8          -0.101207020    0.080846332   -0.075118483
      2        1           0.001192497   -0.046941013    0.003911093
      3        1           0.064843528    0.001143442   -0.013999136
      4        1           0.035170994   -0.035048762    0.085206526
 -------------------------------------------------------------------
 Cartesian Forces:  Max     0.101207020 RMS     0.056840044

 GradGradGradGradGradGradGradGradGradGradGradGradGradGradGradGradGradGrad
 Berny optimization.
 Internal  Forces:  Max     0.096693438 RMS     0.049080199
 Search for a local minimum.
 Step number   1 out of a maximum of   20
 All quantities printed in internal units (Hartrees-Bohrs-Radians)
 Mixed Optimization -- RFO/linear search
 Second derivative matrix not updated -- first step.
 The second derivative matrix:
                          R1        R2        R3        A1        A2
           R1           0.55483
           R2           0.00000   0.07331
           R3           0.00000   0.00000   0.23473
           A1           0.00000   0.00000   0.00000   0.16000
           A2           0.00000   0.00000   0.00000   0.00000   0.16000
           A3           0.00000   0.00000   0.00000   0.00000   0.00000
           D1           0.00000   0.00000   0.00000   0.00000   0.00000
                          A3        D1
           A3           0.16000
           D1           0.00000   0.00230
 ITU=  0
     Eigenvalues ---    0.03554   0.07331   0.16000   0.16000   0.23473
     Eigenvalues ---    0.55483
 RFO step:  Lambda=-7.90633273D-02 EMin= 3.55381131D-02
 Linear search not attempted -- first point.
 Maximum step size (   0.300) exceeded in Quadratic search.
    -- Step size scaled by   0.534
 Iteration  1 RMS(Cart)=  0.09719180 RMS(Int)=  0.01579221
 Iteration  2 RMS(Cart)=  0.00930878 RMS(Int)=  0.00508083
 Iteration  3 RMS(Cart)=  0.00010732 RMS(Int)=  0.00508005
 Iteration  4 RMS(Cart)=  0.00000034 RMS(Int)=  0.00508005
 Variable       Old X    -DE/DX   Delta X   Delta X   Delta X     New X
                                 (Linear)    (Quad)   (Total)
    R1        1.81406   0.03046   0.00000   0.02564   0.02564   1.83969
    R2        3.22251  -0.06427   0.00000  -0.22505  -0.22505   2.99746
    R3        2.29957  -0.09669   0.00000  -0.16440  -0.16440   2.13517
    A1        1.13973   0.01408   0.00000   0.07124   0.08047   1.22020
    A2        2.18510  -0.01999   0.00000  -0.06580  -0.06907   2.11603
    A3        1.41601   0.00664   0.00000   0.04325   0.04874   1.46475
    D1        0.89237   0.04257   0.00000   0.19817   0.19079   1.08316
         Item               Value     Threshold  Converged?
 Maximum Force            0.096693     0.000450     NO 
 RMS     Force            0.049080     0.000300     NO 
 Maximum Displacement     0.129428     0.001800     NO 
 RMS     Displacement     0.099697     0.001200     NO 
 Predicted change in Energy=-3.575770D-02
 GradGradGradGradGradGradGradGradGradGradGradGradGradGradGradGradGradGrad

                          Input orientation:                          
 ---------------------------------------------------------------------
 Center     Atomic      Atomic             Coordinates (Angstroms)
 Number     Number       Type             X           Y           Z
 ---------------------------------------------------------------------
      1          8           0        0.359700   -0.136298   -0.079120
      2          1           0        0.001019   -0.816487    0.517904
      3          1           0       -1.148734    0.196061    0.281649
      4          1           0       -0.000848   -0.043872   -1.145935
 ---------------------------------------------------------------------
                    Distance matrix (angstroms):
                    1          2          3          4
     1  O    0.000000
     2  H    0.973522   0.000000
     3  H    1.586187   1.550162   0.000000
     4  H    1.129881   1.834474   1.847486   0.000000
 Stoichiometry    H3O(1+)
 Framework group  C1[X(H3O)]
 Deg. of freedom     6
 Full point group                 C1      NOp   1
 Largest Abelian subgroup         C1      NOp   1
 Largest concise Abelian subgroup C1      NOp   1
                         Standard orientation:                         
 ---------------------------------------------------------------------
 Center     Atomic      Atomic             Coordinates (Angstroms)
 Number     Number       Type             X           Y           Z
 ---------------------------------------------------------------------
      1          8           0       -0.172599   -0.078003   -0.075991
      2          1           0        0.373236   -0.712431    0.421313
      3          1           0        1.350215    0.363965   -0.117098
      4          1           0       -0.342658    0.972491    0.303711
 ---------------------------------------------------------------------
 Rotational constants (GHZ):    249.2461733    178.1146839    121.7307887
 Standard basis: 6-31G(d,p) (6D, 7F)
 There are    30 symmetry adapted basis functions of A   symmetry.
 Integral buffers will be    131072 words long.
 Raffenetti 2 integral format.
 Two-electron integral symmetry is turned on.
    30 basis functions,    49 primitive gaussians,    30 cartesian basis functions
     5 alpha electrons        5 beta electrons
       nuclear repulsion energy        11.6805287877 Hartrees.
 NAtoms=    4 NActive=    4 NUniq=    4 SFac= 1.00D+00 NAtFMM=   60 NAOKFM=F Big=F
 One-electron integrals computed using PRISM.
 NBasis=    30 RedAO= T  NBF=    30
 NBsUse=    30 1.00D-06 NBFU=    30
 Initial guess read from the read-write file.
 B after Tr=     0.000000    0.000000    0.000000
         Rot=    1.000000    0.000000    0.000000    0.000000 Ang=   0.00 deg.
 Initial guess orbital symmetries:
       Occupied  (A) (A) (A) (A) (A)
       Virtual   (A) (A) (A) (A) (A) (A) (A) (A) (A) (A) (A) (A)
                 (A) (A) (A) (A) (A) (A) (A) (A) (A) (A) (A) (A)
                 (A)
 Harris functional with IExCor=  402 diagonalized for initial guess.
 ExpMin= 1.61D-01 ExpMax= 5.48D+03 ExpMxC= 8.25D+02 IAcc=1 IRadAn=         1 AccDes= 0.00D+00
 HarFok:  IExCor=  402 AccDes= 0.00D+00 IRadAn=         1 IDoV= 1
 ScaDFX=  1.000000  1.000000  1.000000  1.000000
 FoFCou: FMM=F IPFlag=           0 FMFlag=      100000 FMFlg1=           0
         NFxFlg=           0 DoJE=T BraDBF=F KetDBF=T FulRan=T
         Omega=  0.000000  0.000000  1.000000  0.000000  0.000000 ICntrl=     500 IOpCl=  0
         NMat0=    1 NMatS0=    1 NMatT0=    0 NMatD0=    1 NMtDS0=    0 NMtDT0=    0
         I1Cent=           4 NGrid=           0.
 Petite list used in FoFCou.
 Requested convergence on RMS density matrix=1.00D-08 within 128 cycles.
 Requested convergence on MAX density matrix=1.00D-06.
 Requested convergence on             energy=1.00D-06.
 No special actions if energy rises.
 Keep R1 ints in memory in canonical form, NReq=1020939.
 Integral accuracy reduced to 1.0D-05 until final iterations.
 Initial convergence to 1.0D-05 achieved.  Increase integral accuracy.
 SCF Done:  E(RB3LYP) =  -76.5615045591     A.U. after   10 cycles
             Convg  =    0.6238D-08             -V/T =  2.0136
 Calling FoFJK, ICntrl=      2127 FMM=F ISym2X=0 I1Cent= 0 IOpClX= 0 NMat=1 NMatS=1 NMatT=0.
 ***** Axes restored to original set *****
 -------------------------------------------------------------------
 Center     Atomic                   Forces (Hartrees/Bohr)
 Number     Number              X              Y              Z
 -------------------------------------------------------------------
      1        8          -0.122566040    0.059577159   -0.046067783
      2        1           0.015433354   -0.037455973   -0.007575455
      3        1           0.074497631    0.003598545   -0.015589585
      4        1           0.032635054   -0.025719731    0.069232823
 -------------------------------------------------------------------
 Cartesian Forces:  Max     0.122566040 RMS     0.053788362

 GradGradGradGradGradGradGradGradGradGradGradGradGradGradGradGradGradGrad
 Berny optimization.
 Using GEDIIS/GDIIS optimizer.
 Internal  Forces:  Max     0.077887287 RMS     0.045778327
 Search for a local minimum.
 Step number   2 out of a maximum of   20
 All quantities printed in internal units (Hartrees-Bohrs-Radians)
 Mixed Optimization -- RFO/linear search
 Update second derivatives using D2CorX and points    1    2
 DE= -4.23D-02 DEPred=-3.58D-02 R= 1.18D+00
 SS=  1.41D+00  RLast= 3.58D-01 DXNew= 5.0454D-01 1.0748D+00
 Trust test= 1.18D+00 RLast= 3.58D-01 DXMaxT set to 5.05D-01
 The second derivative matrix:
                          R1        R2        R3        A1        A2
           R1           1.23840
           R2           0.46662   0.33892
           R3          -0.85662  -0.62667   1.27499
           A1          -0.22832  -0.12027   0.31432   0.21233
           A2           0.12945   0.06062  -0.18421  -0.02458   0.16996
           A3          -0.35728  -0.21313   0.47210   0.09866  -0.05153
           D1          -0.04310  -0.02673   0.05615   0.01258  -0.00675
                          A3        D1
           A3           0.32887
           D1           0.02096   0.00488
 ITU=  1  0
 Use linear search instead of GDIIS.
     Eigenvalues ---    0.00021   0.05752   0.15687   0.16133   0.43284
     Eigenvalues ---    2.53988
 RFO could not converge Lambda in  999 iterations.
 Skip linear search -- no minimum in search direction.
 Steepest descent instead of Quadratic search.
 Steepest descent step scaled to max of 0.05000.
 Iteration  1 RMS(Cart)=  0.02239928 RMS(Int)=  0.00038034
 Iteration  2 RMS(Cart)=  0.00028093 RMS(Int)=  0.00013446
 Iteration  3 RMS(Cart)=  0.00000013 RMS(Int)=  0.00013446
 Variable       Old X    -DE/DX   Delta X   Delta X   Delta X     New X
                                 (Linear)    (Quad)   (Total)
    R1        1.83969   0.01584   0.00000   0.01017   0.01017   1.84986
    R2        2.99746  -0.07364   0.00000  -0.04727  -0.04727   2.95019
    R3        2.13517  -0.07789   0.00000  -0.05000  -0.05000   2.08517
    A1        1.22020   0.01855   0.00000   0.01191   0.01215   1.23235
    A2        2.11603  -0.02244   0.00000  -0.01440  -0.01448   2.10154
    A3        1.46475   0.01392   0.00000   0.00894   0.00908   1.47383
    D1        1.08316   0.04346   0.00000   0.02790   0.02770   1.11085
         Item               Value     Threshold  Converged?
 Maximum Force            0.077887     0.000450     NO 
 RMS     Force            0.045778     0.000300     NO 
 Maximum Displacement     0.034883     0.001800     NO 
 RMS     Displacement     0.022385     0.001200     NO 
 Predicted change in Energy=-9.038995D-03
 GradGradGradGradGradGradGradGradGradGradGradGradGradGradGradGradGradGrad

                          Input orientation:                          
 ---------------------------------------------------------------------
 Center     Atomic      Atomic             Coordinates (Angstroms)
 Number     Number       Type             X           Y           Z
 ---------------------------------------------------------------------
      1          8           0        0.348575   -0.123777   -0.083443
      2          1           0        0.000320   -0.820903    0.508998
      3          1           0       -1.136503    0.196069    0.276418
      4          1           0       -0.001256   -0.051985   -1.127475
 ---------------------------------------------------------------------
                    Distance matrix (angstroms):
                    1          2          3          4
     1  O    0.000000
     2  H    0.978903   0.000000
     3  H    1.561172   1.542949   0.000000
     4  H    1.103422   1.808116   1.822425   0.000000
 Stoichiometry    H3O(1+)
 Framework group  C1[X(H3O)]
 Deg. of freedom     6
 Full point group                 C1      NOp   1
 Largest Abelian subgroup         C1      NOp   1
 Largest concise Abelian subgroup C1      NOp   1
                         Standard orientation:                         
 ---------------------------------------------------------------------
 Center     Atomic      Atomic             Coordinates (Angstroms)
 Number     Number       Type             X           Y           Z
 ---------------------------------------------------------------------
      1          8           0       -0.168655   -0.074904   -0.078586
      2          1           0        0.375910   -0.713903    0.424782
      3          1           0        1.325696    0.375437   -0.115526
      4          1           0       -0.352368    0.937700    0.319436
 ---------------------------------------------------------------------
 Rotational constants (GHZ):    254.8229681    181.7895807    125.8710684
 Standard basis: 6-31G(d,p) (6D, 7F)
 There are    30 symmetry adapted basis functions of A   symmetry.
 Integral buffers will be    131072 words long.
 Raffenetti 2 integral format.
 Two-electron integral symmetry is turned on.
    30 basis functions,    49 primitive gaussians,    30 cartesian basis functions
     5 alpha electrons        5 beta electrons
       nuclear repulsion energy        11.7989753108 Hartrees.
 NAtoms=    4 NActive=    4 NUniq=    4 SFac= 1.00D+00 NAtFMM=   60 NAOKFM=F Big=F
 One-electron integrals computed using PRISM.
 NBasis=    30 RedAO= T  NBF=    30
 NBsUse=    30 1.00D-06 NBFU=    30
 Initial guess read from the read-write file.
 B after Tr=     0.000000    0.000000    0.000000
         Rot=    1.000000    0.000000    0.000000    0.000000 Ang=   0.00 deg.
 Initial guess orbital symmetries:
       Occupied  (A) (A) (A) (A) (A)
       Virtual   (A) (A) (A) (A) (A) (A) (A) (A) (A) (A) (A) (A)
                 (A) (A) (A) (A) (A) (A) (A) (A) (A) (A) (A) (A)
                 (A)
 Harris functional with IExCor=  402 diagonalized for initial guess.
 ExpMin= 1.61D-01 ExpMax= 5.48D+03 ExpMxC= 8.25D+02 IAcc=1 IRadAn=         1 AccDes= 0.00D+00
 HarFok:  IExCor=  402 AccDes= 0.00D+00 IRadAn=         1 IDoV= 1
 ScaDFX=  1.000000  1.000000  1.000000  1.000000
 FoFCou: FMM=F IPFlag=           0 FMFlag=      100000 FMFlg1=           0
         NFxFlg=           0 DoJE=T BraDBF=F KetDBF=T FulRan=T
         Omega=  0.000000  0.000000  1.000000  0.000000  0.000000 ICntrl=     500 IOpCl=  0
         NMat0=    1 NMatS0=    1 NMatT0=    0 NMatD0=    1 NMtDS0=    0 NMtDT0=    0
         I1Cent=           4 NGrid=           0.
 Petite list used in FoFCou.
 Requested convergence on RMS density matrix=1.00D-08 within 128 cycles.
 Requested convergence on MAX density matrix=1.00D-06.
 Requested convergence on             energy=1.00D-06.
 No special actions if energy rises.
 Keep R1 ints in memory in canonical form, NReq=1020939.
 Integral accuracy reduced to 1.0D-05 until final iterations.
 Initial convergence to 1.0D-05 achieved.  Increase integral accuracy.
 SCF Done:  E(RB3LYP) =  -76.5707219654     A.U. after   10 cycles
             Convg  =    0.1605D-08             -V/T =  2.0134
 Calling FoFJK, ICntrl=      2127 FMM=F ISym2X=0 I1Cent= 0 IOpClX= 0 NMat=1 NMatS=1 NMatT=0.
 ***** Axes restored to original set *****
 -------------------------------------------------------------------
 Center     Atomic                   Forces (Hartrees/Bohr)
 Number     Number              X              Y              Z
 -------------------------------------------------------------------
      1        8          -0.125756940    0.052674188   -0.034000824
      2        1           0.018810901   -0.033309455   -0.010562358
      3        1           0.076143572    0.004335799   -0.016112479
      4        1           0.030802467   -0.023700532    0.060675661
 -------------------------------------------------------------------
 Cartesian Forces:  Max     0.125756940 RMS     0.052112590

 GradGradGradGradGradGradGradGradGradGradGradGradGradGradGradGradGradGrad
 Berny optimization.
 Using GEDIIS/GDIIS optimizer.
 Internal  Forces:  Max     0.075257591 RMS     0.043896954
 Search for a local minimum.
 Step number   3 out of a maximum of   20
 All quantities printed in internal units (Hartrees-Bohrs-Radians)
 Mixed Optimization -- RFO/linear search
 Update second derivatives using D2CorX and points    1    2    3
 DE= -9.22D-03 DEPred=-9.04D-03 R= 1.02D+00
 SS=  1.41D+00  RLast= 7.77D-02 DXNew= 8.4853D-01 2.3325D-01
 Trust test= 1.02D+00 RLast= 7.77D-02 DXMaxT set to 5.05D-01
 The second derivative matrix:
                          R1        R2        R3        A1        A2
           R1           0.52778
           R2           0.00511   0.04532
           R3           0.00664  -0.05501   0.24578
           A1           0.01655   0.03561   0.01137   0.12945
           A2          -0.01138  -0.02508  -0.00288   0.02107   0.14743
           A3           0.00033   0.01441   0.02920  -0.02215   0.01491
           D1           0.00142   0.00121   0.00029  -0.00225   0.00115
                          A3        D1
           A3           0.15252
           D1          -0.00069   0.00225
 ITU=  1  1  0
 Use linear search instead of GDIIS.
     Eigenvalues ---    0.00226   0.05938   0.15924   0.16155   0.26482
     Eigenvalues ---    0.52851
 RFO step:  Lambda=-1.31818800D-02 EMin= 2.26342061D-03
 Quartic linear search produced a step of  2.00000.
 Maximum step size (   0.505) exceeded in Quadratic search.
    -- Step size scaled by   0.714
 Iteration  1 RMS(Cart)=  0.12304625 RMS(Int)=  0.14686361
 Iteration  2 RMS(Cart)=  0.06390930 RMS(Int)=  0.05320096
 Iteration  3 RMS(Cart)=  0.04294216 RMS(Int)=  0.01784253
 Iteration  4 RMS(Cart)=  0.00029834 RMS(Int)=  0.01783969
 Iteration  5 RMS(Cart)=  0.00001051 RMS(Int)=  0.01783969
 Iteration  6 RMS(Cart)=  0.00000041 RMS(Int)=  0.01783969
 Variable       Old X    -DE/DX   Delta X   Delta X   Delta X     New X
                                 (Linear)    (Quad)   (Total)
    R1        1.84986   0.01064   0.02034  -0.02194  -0.00160   1.84826
    R2        2.95019  -0.07526  -0.09454  -0.43489  -0.52944   2.42075
    R3        2.08517  -0.06872  -0.10000  -0.06665  -0.16665   1.91851
    A1        1.23235   0.01962   0.02430   0.18459   0.24228   1.47463
    A2        2.10154  -0.02194  -0.02897  -0.11422  -0.14291   1.95863
    A3        1.47383   0.01518   0.01816   0.11027   0.14098   1.61481
    D1        1.11085   0.04350   0.05539   0.34952   0.37401   1.48486
         Item               Value     Threshold  Converged?
 Maximum Force            0.075258     0.000450     NO 
 RMS     Force            0.043897     0.000300     NO 
 Maximum Displacement     0.284015     0.001800     NO 
 RMS     Displacement     0.186405     0.001200     NO 
 Predicted change in Energy=-7.679437D-02
 GradGradGradGradGradGradGradGradGradGradGradGradGradGradGradGradGradGrad

                          Input orientation:                          
 ---------------------------------------------------------------------
 Center     Atomic      Atomic             Coordinates (Angstroms)
 Number     Number       Type             X           Y           Z
 ---------------------------------------------------------------------
      1          8           0        0.198281   -0.032856   -0.048876
      2          1           0        0.039380   -0.870214    0.430891
      3          1           0       -1.025861    0.217567    0.233505
      4          1           0       -0.000664   -0.115094   -1.041022
 ---------------------------------------------------------------------
                    Distance matrix (angstroms):
                    1          2          3          4
     1  O    0.000000
     2  H    0.978057   0.000000
     3  H    1.281005   1.535242   0.000000
     4  H    1.015232   1.654793   1.669165   0.000000
 Stoichiometry    H3O(1+)
 Framework group  C1[X(H3O)]
 Deg. of freedom     6
 Full point group                 C1      NOp   1
 Largest Abelian subgroup         C1      NOp   1
 Largest concise Abelian subgroup C1      NOp   1
                         Standard orientation:                         
 ---------------------------------------------------------------------
 Center     Atomic      Atomic             Coordinates (Angstroms)
 Number     Number       Type             X           Y           Z
 ---------------------------------------------------------------------
      1          8           0       -0.092326   -0.059445   -0.112975
      2          1           0        0.332440   -0.730788    0.457522
      3          1           0        1.012482    0.574786    0.021646
      4          1           0       -0.606311    0.631564    0.424634
 ---------------------------------------------------------------------
 Rotational constants (GHZ):    270.4568833    231.8902900    171.6341960
 Standard basis: 6-31G(d,p) (6D, 7F)
 There are    30 symmetry adapted basis functions of A   symmetry.
 Integral buffers will be    131072 words long.
 Raffenetti 2 integral format.
 Two-electron integral symmetry is turned on.
    30 basis functions,    49 primitive gaussians,    30 cartesian basis functions
     5 alpha electrons        5 beta electrons
       nuclear repulsion energy        12.7845613162 Hartrees.
 NAtoms=    4 NActive=    4 NUniq=    4 SFac= 1.00D+00 NAtFMM=   60 NAOKFM=F Big=F
 One-electron integrals computed using PRISM.
 NBasis=    30 RedAO= T  NBF=    30
 NBsUse=    30 1.00D-06 NBFU=    30
 Initial guess read from the read-write file.
 B after Tr=     0.000000    0.000000    0.000000
         Rot=    1.000000    0.000000    0.000000    0.000000 Ang=   0.00 deg.
 Initial guess orbital symmetries:
       Occupied  (A) (A) (A) (A) (A)
       Virtual   (A) (A) (A) (A) (A) (A) (A) (A) (A) (A) (A) (A)
                 (A) (A) (A) (A) (A) (A) (A) (A) (A) (A) (A) (A)
                 (A)
 Harris functional with IExCor=  402 diagonalized for initial guess.
 ExpMin= 1.61D-01 ExpMax= 5.48D+03 ExpMxC= 8.25D+02 IAcc=1 IRadAn=         1 AccDes= 0.00D+00
 HarFok:  IExCor=  402 AccDes= 0.00D+00 IRadAn=         1 IDoV= 1
 ScaDFX=  1.000000  1.000000  1.000000  1.000000
 FoFCou: FMM=F IPFlag=           0 FMFlag=      100000 FMFlg1=           0
         NFxFlg=           0 DoJE=T BraDBF=F KetDBF=T FulRan=T
         Omega=  0.000000  0.000000  1.000000  0.000000  0.000000 ICntrl=     500 IOpCl=  0
         NMat0=    1 NMatS0=    1 NMatT0=    0 NMatD0=    1 NMtDS0=    0 NMtDT0=    0
         I1Cent=           4 NGrid=           0.
 Petite list used in FoFCou.
 Requested convergence on RMS density matrix=1.00D-08 within 128 cycles.
 Requested convergence on MAX density matrix=1.00D-06.
 Requested convergence on             energy=1.00D-06.
 No special actions if energy rises.
 Keep R1 ints in memory in canonical form, NReq=1020939.
 Integral accuracy reduced to 1.0D-05 until final iterations.
 Initial convergence to 1.0D-05 achieved.  Increase integral accuracy.
 SCF Done:  E(RB3LYP) =  -76.6485099899     A.U. after   11 cycles
             Convg  =    0.9736D-09             -V/T =  2.0119
 Calling FoFJK, ICntrl=      2127 FMM=F ISym2X=0 I1Cent= 0 IOpClX= 0 NMat=1 NMatS=1 NMatT=0.
 ***** Axes restored to original set *****
 -------------------------------------------------------------------
 Center     Atomic                   Forces (Hartrees/Bohr)
 Number     Number              X              Y              Z
 -------------------------------------------------------------------
      1        8          -0.134507452    0.025959734    0.004803297
      2        1           0.025104328   -0.022177544   -0.005037376
      3        1           0.089664368    0.004356665   -0.016609818
      4        1           0.019738756   -0.008138855    0.016843897
 -------------------------------------------------------------------
 Cartesian Forces:  Max     0.134507452 RMS     0.049168775

 GradGradGradGradGradGradGradGradGradGradGradGradGradGradGradGradGradGrad
 Berny optimization.
 Using GEDIIS/GDIIS optimizer.
 Internal  Forces:  Max     0.088494288 RMS     0.038788627
 Search for a local minimum.
 Step number   4 out of a maximum of   20
 All quantities printed in internal units (Hartrees-Bohrs-Radians)
 Mixed Optimization -- RFO/linear search
 Update second derivatives using D2CorX and points    3    4
 DE= -7.78D-02 DEPred=-7.68D-02 R= 1.01D+00
 SS=  1.41D+00  RLast= 7.40D-01 DXNew= 8.4853D-01 2.2187D+00
 Trust test= 1.01D+00 RLast= 7.40D-01 DXMaxT set to 8.49D-01
 The second derivative matrix:
                          R1        R2        R3        A1        A2
           R1           0.52685
           R2           0.00066   0.07906
           R3           0.02806  -0.18047   0.69662
           A1           0.01374   0.03025   0.04265   0.12210
           A2          -0.00856  -0.04836   0.08449   0.02420   0.16346
           A3           0.00136  -0.00223   0.09482  -0.02221   0.02620
           D1          -0.00180   0.02965  -0.10718  -0.00554  -0.01839
                          A3        D1
           A3           0.15983
           D1          -0.01431   0.02604
 ITU=  1  1  1  0
 Use linear search instead of GDIIS.
     Eigenvalues ---    0.00252   0.07167   0.15275   0.16126   0.52539
     Eigenvalues ---    0.77460
 RFO step:  Lambda=-9.99711877D-02 EMin= 2.51767097D-03
 Skip linear search -- no minimum in search direction.
 Maximum step size (   0.849) exceeded in Quadratic search.
    -- Step size scaled by   0.926
 Iteration  1 RMS(Cart)=  0.12850079 RMS(Int)=  0.22153735
 Iteration  2 RMS(Cart)=  0.06617802 RMS(Int)=  0.13863582
 Iteration  3 RMS(Cart)=  0.06349934 RMS(Int)=  0.06353419
 Iteration  4 RMS(Cart)=  0.05178551 RMS(Int)=  0.00891468
 Iteration  5 RMS(Cart)=  0.00050939 RMS(Int)=  0.00887116
 Iteration  6 RMS(Cart)=  0.00001012 RMS(Int)=  0.00887115
 Iteration  7 RMS(Cart)=  0.00000019 RMS(Int)=  0.00887115
 Variable       Old X    -DE/DX   Delta X   Delta X   Delta X     New X
                                 (Linear)    (Quad)   (Total)
    R1        1.84826   0.01244   0.00000   0.02011   0.02011   1.86837
    R2        2.42075  -0.08849   0.00000  -0.76138  -0.76138   1.65937
    R3        1.91851  -0.01967   0.00000  -0.17016  -0.17016   1.74835
    A1        1.47463   0.02185   0.00000   0.23905   0.25552   1.73015
    A2        1.95863  -0.01280   0.00000  -0.14633  -0.14181   1.81682
    A3        1.61481   0.02175   0.00000   0.17693   0.18171   1.79652
    D1        1.48486   0.03233   0.00000   0.32879   0.31342   1.79829
         Item               Value     Threshold  Converged?
 Maximum Force            0.088494     0.000450     NO 
 RMS     Force            0.038789     0.000300     NO 
 Maximum Displacement     0.373423     0.001800     NO 
 RMS     Displacement     0.224345     0.001200     NO 
 Predicted change in Energy=-9.113192D-02
 GradGradGradGradGradGradGradGradGradGradGradGradGradGradGradGradGradGrad

                          Input orientation:                          
 ---------------------------------------------------------------------
 Center     Atomic      Atomic             Coordinates (Angstroms)
 Number     Number       Type             X           Y           Z
 ---------------------------------------------------------------------
      1          8           0        0.000674    0.021563   -0.024698
      2          1           0        0.066283   -0.880128    0.375519
      3          1           0       -0.840136    0.195021    0.159719
      4          1           0       -0.015685   -0.137054   -0.936041
 ---------------------------------------------------------------------
                    Distance matrix (angstroms):
                    1          2          3          4
     1  O    0.000000
     2  H    0.988699   0.000000
     3  H    0.878100   1.422713   0.000000
     4  H    0.925188   1.509658   1.410916   0.000000
 Stoichiometry    H3O(1+)
 Framework group  C1[X(H3O)]
 Deg. of freedom     6
 Full point group                 C1      NOp   1
 Largest Abelian subgroup         C1      NOp   1
 Largest concise Abelian subgroup C1      NOp   1
                         Standard orientation:                         
 ---------------------------------------------------------------------
 Center     Atomic      Atomic             Coordinates (Angstroms)
 Number     Number       Type             X           Y           Z
 ---------------------------------------------------------------------
      1          8           0       -0.015152    0.008917   -0.110686
      2          1           0        0.821573   -0.374308    0.250639
      3          1           0       -0.016603    0.773079    0.321881
      4          1           0       -0.683753   -0.470109    0.312964
 ---------------------------------------------------------------------
 Rotational constants (GHZ):    363.8294954    320.5779517    238.1593006
 Standard basis: 6-31G(d,p) (6D, 7F)
 There are    30 symmetry adapted basis functions of A   symmetry.
 Integral buffers will be    131072 words long.
 Raffenetti 2 integral format.
 Two-electron integral symmetry is turned on.
    30 basis functions,    49 primitive gaussians,    30 cartesian basis functions
     5 alpha electrons        5 beta electrons
       nuclear repulsion energy        14.7761975610 Hartrees.
 NAtoms=    4 NActive=    4 NUniq=    4 SFac= 1.00D+00 NAtFMM=   60 NAOKFM=F Big=F
 One-electron integrals computed using PRISM.
 NBasis=    30 RedAO= T  NBF=    30
 NBsUse=    30 1.00D-06 NBFU=    30
 Initial guess read from the read-write file.
 B after Tr=     0.000000    0.000000    0.000000
         Rot=    1.000000    0.000000    0.000000    0.000000 Ang=   0.00 deg.
 Initial guess orbital symmetries:
       Occupied  (A) (A) (A) (A) (A)
       Virtual   (A) (A) (A) (A) (A) (A) (A) (A) (A) (A) (A) (A)
                 (A) (A) (A) (A) (A) (A) (A) (A) (A) (A) (A) (A)
                 (A)
 Harris functional with IExCor=  402 diagonalized for initial guess.
 ExpMin= 1.61D-01 ExpMax= 5.48D+03 ExpMxC= 8.25D+02 IAcc=1 IRadAn=         1 AccDes= 0.00D+00
 HarFok:  IExCor=  402 AccDes= 0.00D+00 IRadAn=         1 IDoV= 1
 ScaDFX=  1.000000  1.000000  1.000000  1.000000
 FoFCou: FMM=F IPFlag=           0 FMFlag=      100000 FMFlg1=           0
         NFxFlg=           0 DoJE=T BraDBF=F KetDBF=T FulRan=T
         Omega=  0.000000  0.000000  1.000000  0.000000  0.000000 ICntrl=     500 IOpCl=  0
         NMat0=    1 NMatS0=    1 NMatT0=    0 NMatD0=    1 NMtDS0=    0 NMtDT0=    0
         I1Cent=           4 NGrid=           0.
 Petite list used in FoFCou.
 Requested convergence on RMS density matrix=1.00D-08 within 128 cycles.
 Requested convergence on MAX density matrix=1.00D-06.
 Requested convergence on             energy=1.00D-06.
 No special actions if energy rises.
 Keep R1 ints in memory in canonical form, NReq=1020932.
 Integral accuracy reduced to 1.0D-05 until final iterations.
 Initial convergence to 1.0D-05 achieved.  Increase integral accuracy.
 SCF Done:  E(RB3LYP) =  -76.6807047188     A.U. after   11 cycles
             Convg  =    0.3943D-09             -V/T =  2.0043
 Calling FoFJK, ICntrl=      2127 FMM=F ISym2X=0 I1Cent= 0 IOpClX= 0 NMat=1 NMatS=1 NMatT=0.
 ***** Axes restored to original set *****
 -------------------------------------------------------------------
 Center     Atomic                   Forces (Hartrees/Bohr)
 Number     Number              X              Y              Z
 -------------------------------------------------------------------
      1        8           0.102761415   -0.046170296    0.029289119
      2        1           0.019378790   -0.001478952    0.006449046
      3        1          -0.135996221    0.051416726    0.037544918
      4        1           0.013856016   -0.003767478   -0.073283083
 -------------------------------------------------------------------
 Cartesian Forces:  Max     0.135996221 RMS     0.059226710

 GradGradGradGradGradGradGradGradGradGradGradGradGradGradGradGradGradGrad
 Berny optimization.
 Using GEDIIS/GDIIS optimizer.
 Internal  Forces:  Max     0.148263586 RMS     0.063896043
 Search for a local minimum.
 Step number   5 out of a maximum of   20
 All quantities printed in internal units (Hartrees-Bohrs-Radians)
 Mixed Optimization -- RFO/linear search
 Update second derivatives using D2CorX and points    4    5
 DE= -3.22D-02 DEPred=-9.11D-02 R= 3.53D-01
 Trust test= 3.53D-01 RLast= 9.09D-01 DXMaxT set to 8.49D-01
 The second derivative matrix:
                          R1        R2        R3        A1        A2
           R1           0.49141
           R2           0.01436   0.33855
           R3           0.01753  -0.06958   0.73659
           A1           0.04352   0.00081   0.04427   0.09828
           A2          -0.02516  -0.00865   0.09298   0.03590   0.15987
           A3          -0.00139  -0.00152   0.09386  -0.01988   0.02487
           D1          -0.01023   0.02464  -0.11302   0.00211  -0.02338
                          A3        D1
           A3           0.15962
           D1          -0.01495   0.02429
 ITU=  0  1  1  1  0
 Use linear search instead of GDIIS.
     Eigenvalues ---    0.04730   0.12926   0.15429   0.32671   0.49737
     Eigenvalues ---    0.76840
 RFO step:  Lambda=-4.80092499D-02 EMin= 4.73008197D-02
 Quartic linear search produced a step of -0.27543.
 Iteration  1 RMS(Cart)=  0.14231927 RMS(Int)=  0.09414864
 Iteration  2 RMS(Cart)=  0.06588160 RMS(Int)=  0.01041233
 Iteration  3 RMS(Cart)=  0.00280961 RMS(Int)=  0.00982378
 Iteration  4 RMS(Cart)=  0.00003249 RMS(Int)=  0.00982371
 Iteration  5 RMS(Cart)=  0.00000085 RMS(Int)=  0.00982371
 Variable       Old X    -DE/DX   Delta X   Delta X   Delta X     New X
                                 (Linear)    (Quad)   (Total)
    R1        1.86837   0.00524  -0.00554  -0.01336  -0.01890   1.84947
    R2        1.65937   0.14826   0.20971   0.06314   0.27285   1.93222
    R3        1.74835   0.07259   0.04687   0.07695   0.12381   1.87217
    A1        1.73015   0.01205  -0.07038   0.39419   0.30626   2.03641
    A2        1.81682   0.01325   0.03906  -0.06401  -0.03477   1.78206
    A3        1.79652   0.02088  -0.05005   0.23800   0.17969   1.97621
    D1        1.79829   0.02331  -0.08633   0.47781   0.40571   2.20400
         Item               Value     Threshold  Converged?
 Maximum Force            0.148264     0.000450     NO 
 RMS     Force            0.063896     0.000300     NO 
 Maximum Displacement     0.273953     0.001800     NO 
 RMS     Displacement     0.193755     0.001200     NO 
 Predicted change in Energy=-4.245290D-02
 GradGradGradGradGradGradGradGradGradGradGradGradGradGradGradGradGradGrad

                          Input orientation:                          
 ---------------------------------------------------------------------
 Center     Atomic      Atomic             Coordinates (Angstroms)
 Number     Number       Type             X           Y           Z
 ---------------------------------------------------------------------
      1          8           0       -0.052479   -0.040385   -0.013839
      2          1           0        0.166920   -0.924316    0.344458
      3          1           0       -0.969201    0.339991    0.231950
      4          1           0        0.065897   -0.175887   -0.988071
 ---------------------------------------------------------------------
                    Distance matrix (angstroms):
                    1          2          3          4
     1  O    0.000000
     2  H    0.978697   0.000000
     3  H    1.022486   1.703497   0.000000
     4  H    0.990707   1.531661   1.681075   0.000000
 Stoichiometry    H3O(1+)
 Framework group  C1[X(H3O)]
 Deg. of freedom     6
 Full point group                 C1      NOp   1
 Largest Abelian subgroup         C1      NOp   1
 Largest concise Abelian subgroup C1      NOp   1
                         Standard orientation:                         
 ---------------------------------------------------------------------
 Center     Atomic      Atomic             Coordinates (Angstroms)
 Number     Number       Type             X           Y           Z
 ---------------------------------------------------------------------
      1          8           0       -0.009875    0.006026   -0.084520
      2          1           0        0.580467    0.722261    0.225884
      3          1           0       -0.978297    0.035320    0.242248
      4          1           0        0.476826   -0.805785    0.208032
 ---------------------------------------------------------------------
 Rotational constants (GHZ):    354.2467377    284.0297947    186.0500322
 Standard basis: 6-31G(d,p) (6D, 7F)
 There are    30 symmetry adapted basis functions of A   symmetry.
 Integral buffers will be    131072 words long.
 Raffenetti 2 integral format.
 Two-electron integral symmetry is turned on.
    30 basis functions,    49 primitive gaussians,    30 cartesian basis functions
     5 alpha electrons        5 beta electrons
       nuclear repulsion energy        13.7099293610 Hartrees.
 NAtoms=    4 NActive=    4 NUniq=    4 SFac= 1.00D+00 NAtFMM=   60 NAOKFM=F Big=F
 One-electron integrals computed using PRISM.
 NBasis=    30 RedAO= T  NBF=    30
 NBsUse=    30 1.00D-06 NBFU=    30
 Initial guess read from the read-write file.
 B after Tr=     0.000000    0.000000    0.000000
         Rot=    1.000000    0.000000    0.000000    0.000000 Ang=   0.00 deg.
 Initial guess orbital symmetries:
       Occupied  (A) (A) (A) (A) (A)
       Virtual   (A) (A) (A) (A) (A) (A) (A) (A) (A) (A) (A) (A)
                 (A) (A) (A) (A) (A) (A) (A) (A) (A) (A) (A) (A)
                 (A)
 Harris functional with IExCor=  402 diagonalized for initial guess.
 ExpMin= 1.61D-01 ExpMax= 5.48D+03 ExpMxC= 8.25D+02 IAcc=1 IRadAn=         1 AccDes= 0.00D+00
 HarFok:  IExCor=  402 AccDes= 0.00D+00 IRadAn=         1 IDoV= 1
 ScaDFX=  1.000000  1.000000  1.000000  1.000000
 FoFCou: FMM=F IPFlag=           0 FMFlag=      100000 FMFlg1=           0
         NFxFlg=           0 DoJE=T BraDBF=F KetDBF=T FulRan=T
         Omega=  0.000000  0.000000  1.000000  0.000000  0.000000 ICntrl=     500 IOpCl=  0
         NMat0=    1 NMatS0=    1 NMatT0=    0 NMatD0=    1 NMtDS0=    0 NMtDT0=    0
         I1Cent=           4 NGrid=           0.
 Petite list used in FoFCou.
 Requested convergence on RMS density matrix=1.00D-08 within 128 cycles.
 Requested convergence on MAX density matrix=1.00D-06.
 Requested convergence on             energy=1.00D-06.
 No special actions if energy rises.
 Keep R1 ints in memory in canonical form, NReq=1020932.
 Integral accuracy reduced to 1.0D-05 until final iterations.
 Initial convergence to 1.0D-05 achieved.  Increase integral accuracy.
 SCF Done:  E(RB3LYP) =  -76.7015469727     A.U. after   10 cycles
             Convg  =    0.5653D-08             -V/T =  2.0099
 Calling FoFJK, ICntrl=      2127 FMM=F ISym2X=0 I1Cent= 0 IOpClX= 0 NMat=1 NMatS=1 NMatT=0.
 ***** Axes restored to original set *****
 -------------------------------------------------------------------
 Center     Atomic                   Forces (Hartrees/Bohr)
 Number     Number              X              Y              Z
 -------------------------------------------------------------------
      1        8          -0.016131721    0.002128022   -0.013591748
      2        1          -0.005645302   -0.000895022    0.017854678
      3        1           0.026807192   -0.015660267   -0.005849882
      4        1          -0.005030169    0.014427267    0.001586953
 -------------------------------------------------------------------
 Cartesian Forces:  Max     0.026807192 RMS     0.013022462

 GradGradGradGradGradGradGradGradGradGradGradGradGradGradGradGradGradGrad
 Berny optimization.
 Using GEDIIS/GDIIS optimizer.
 Internal  Forces:  Max     0.031266306 RMS     0.016126699
 Search for a local minimum.
 Step number   6 out of a maximum of   20
 All quantities printed in internal units (Hartrees-Bohrs-Radians)
 Mixed Optimization -- RFO/linear search
 Update second derivatives using D2CorX and points    5    6
 DE= -2.08D-02 DEPred=-4.25D-02 R= 4.91D-01
 Trust test= 4.91D-01 RLast= 6.18D-01 DXMaxT set to 8.49D-01
 The second derivative matrix:
                          R1        R2        R3        A1        A2
           R1           0.49048
           R2          -0.00080   0.55715
           R3           0.00919  -0.00258   0.75022
           A1           0.03889  -0.00806   0.03173   0.08468
           A2          -0.02645  -0.05639   0.06975   0.02560   0.15957
           A3          -0.00545  -0.00180   0.08616  -0.03070   0.01544
           D1          -0.01068   0.07061  -0.09382   0.00752  -0.02704
                          A3        D1
           A3           0.15122
           D1          -0.00936   0.03016
 ITU=  0  0  1  1  1  0
 Use linear search instead of GDIIS.
     Eigenvalues ---    0.03979   0.10933   0.15523   0.49555   0.56501
     Eigenvalues ---    0.76035
 RFO step:  Lambda=-6.07620692D-03 EMin= 3.97867706D-02
 Quartic linear search produced a step of -0.24069.
 Iteration  1 RMS(Cart)=  0.10413512 RMS(Int)=  0.01021072
 Iteration  2 RMS(Cart)=  0.00646462 RMS(Int)=  0.00455938
 Iteration  3 RMS(Cart)=  0.00004614 RMS(Int)=  0.00455908
 Iteration  4 RMS(Cart)=  0.00000028 RMS(Int)=  0.00455908
 Variable       Old X    -DE/DX   Delta X   Delta X   Delta X     New X
                                 (Linear)    (Quad)   (Total)
    R1        1.84947   0.00608   0.00455   0.03081   0.03536   1.88483
    R2        1.93222  -0.03127  -0.06567   0.03363  -0.03204   1.90018
    R3        1.87217  -0.00413  -0.02980   0.00355  -0.02625   1.84591
    A1        2.03641  -0.01152  -0.07371  -0.11048  -0.17604   1.86037
    A2        1.78206   0.02540   0.00837   0.19338   0.20598   1.98804
    A3        1.97621  -0.00283  -0.04325  -0.02002  -0.05873   1.91748
    D1        2.20400   0.00166  -0.09765  -0.01452  -0.11854   2.08546
         Item               Value     Threshold  Converged?
 Maximum Force            0.031266     0.000450     NO 
 RMS     Force            0.016127     0.000300     NO 
 Maximum Displacement     0.149661     0.001800     NO 
 RMS     Displacement     0.105381     0.001200     NO 
 Predicted change in Energy=-3.401708D-03
 GradGradGradGradGradGradGradGradGradGradGradGradGradGradGradGradGradGrad

                          Input orientation:                          
 ---------------------------------------------------------------------
 Center     Atomic      Atomic             Coordinates (Angstroms)
 Number     Number       Type             X           Y           Z
 ---------------------------------------------------------------------
      1          8           0       -0.017737   -0.049784   -0.048793
      2          1           0        0.120581   -0.917242    0.423656
      3          1           0       -0.927462    0.282518    0.221521
      4          1           0        0.035755   -0.116089   -1.021885
 ---------------------------------------------------------------------
                    Distance matrix (angstroms):
                    1          2          3          4
     1  O    0.000000
     2  H    0.997409   0.000000
     3  H    1.005532   1.605827   0.000000
     4  H    0.976814   1.654881   1.622571   0.000000
 Stoichiometry    H3O(1+)
 Framework group  C1[X(H3O)]
 Deg. of freedom     6
 Full point group                 C1      NOp   1
 Largest Abelian subgroup         C1      NOp   1
 Largest concise Abelian subgroup C1      NOp   1
                         Standard orientation:                         
 ---------------------------------------------------------------------
 Center     Atomic      Atomic             Coordinates (Angstroms)
 Number     Number       Type             X           Y           Z
 ---------------------------------------------------------------------
      1          8           0        0.007363    0.008370   -0.086968
      2          1           0       -0.745927    0.579010    0.232014
      3          1           0       -0.195213   -0.929327    0.214331
      4          1           0        0.882237    0.283358    0.249398
 ---------------------------------------------------------------------
 Rotational constants (GHZ):    326.2042972    307.5080200    188.9691795
 Standard basis: 6-31G(d,p) (6D, 7F)
 There are    30 symmetry adapted basis functions of A   symmetry.
 Integral buffers will be    131072 words long.
 Raffenetti 2 integral format.
 Two-electron integral symmetry is turned on.
    30 basis functions,    49 primitive gaussians,    30 cartesian basis functions
     5 alpha electrons        5 beta electrons
       nuclear repulsion energy        13.7638837015 Hartrees.
 NAtoms=    4 NActive=    4 NUniq=    4 SFac= 1.00D+00 NAtFMM=   60 NAOKFM=F Big=F
 One-electron integrals computed using PRISM.
 NBasis=    30 RedAO= T  NBF=    30
 NBsUse=    30 1.00D-06 NBFU=    30
 Initial guess read from the read-write file.
 B after Tr=     0.000000    0.000000    0.000000
         Rot=    1.000000    0.000000    0.000000    0.000000 Ang=   0.00 deg.
 Initial guess orbital symmetries:
       Occupied  (A) (A) (A) (A) (A)
       Virtual   (A) (A) (A) (A) (A) (A) (A) (A) (A) (A) (A) (A)
                 (A) (A) (A) (A) (A) (A) (A) (A) (A) (A) (A) (A)
                 (A)
 Harris functional with IExCor=  402 diagonalized for initial guess.
 ExpMin= 1.61D-01 ExpMax= 5.48D+03 ExpMxC= 8.25D+02 IAcc=1 IRadAn=         1 AccDes= 0.00D+00
 HarFok:  IExCor=  402 AccDes= 0.00D+00 IRadAn=         1 IDoV= 1
 ScaDFX=  1.000000  1.000000  1.000000  1.000000
 FoFCou: FMM=F IPFlag=           0 FMFlag=      100000 FMFlg1=           0
         NFxFlg=           0 DoJE=T BraDBF=F KetDBF=T FulRan=T
         Omega=  0.000000  0.000000  1.000000  0.000000  0.000000 ICntrl=     500 IOpCl=  0
         NMat0=    1 NMatS0=    1 NMatT0=    0 NMatD0=    1 NMtDS0=    0 NMtDT0=    0
         I1Cent=           4 NGrid=           0.
 Petite list used in FoFCou.
 Requested convergence on RMS density matrix=1.00D-08 within 128 cycles.
 Requested convergence on MAX density matrix=1.00D-06.
 Requested convergence on             energy=1.00D-06.
 No special actions if energy rises.
 Keep R1 ints in memory in canonical form, NReq=1020932.
 Integral accuracy reduced to 1.0D-05 until final iterations.
 Initial convergence to 1.0D-05 achieved.  Increase integral accuracy.
 SCF Done:  E(RB3LYP) =  -76.7040748935     A.U. after   11 cycles
             Convg  =    0.6955D-09             -V/T =  2.0097
 Calling FoFJK, ICntrl=      2127 FMM=F ISym2X=0 I1Cent= 0 IOpClX= 0 NMat=1 NMatS=1 NMatT=0.
 ***** Axes restored to original set *****
 -------------------------------------------------------------------
 Center     Atomic                   Forces (Hartrees/Bohr)
 Number     Number              X              Y              Z
 -------------------------------------------------------------------
      1        8          -0.025793073   -0.004811973    0.021694606
      2        1           0.005262915    0.008004373   -0.009858112
      3        1           0.016781332    0.000178083   -0.005576508
      4        1           0.003748827   -0.003370482   -0.006259986
 -------------------------------------------------------------------
 Cartesian Forces:  Max     0.025793073 RMS     0.011990926

 GradGradGradGradGradGradGradGradGradGradGradGradGradGradGradGradGradGrad
 Berny optimization.
 Using GEDIIS/GDIIS optimizer.
 Internal  Forces:  Max     0.016623049 RMS     0.009018743
 Search for a local minimum.
 Step number   7 out of a maximum of   20
 All quantities printed in internal units (Hartrees-Bohrs-Radians)
 Mixed Optimization -- RFO/linear search
 Update second derivatives using D2CorX and points    5    6    7
 DE= -2.53D-03 DEPred=-3.40D-03 R= 7.43D-01
 SS=  1.41D+00  RLast= 3.06D-01 DXNew= 1.4270D+00 9.1922D-01
 Trust test= 7.43D-01 RLast= 3.06D-01 DXMaxT set to 9.19D-01
 The second derivative matrix:
                          R1        R2        R3        A1        A2
           R1           0.51532
           R2           0.02745   0.54640
           R3           0.00494  -0.00057   0.73567
           A1           0.01629  -0.03352   0.03236   0.10451
           A2           0.00640   0.01427   0.04145  -0.00840   0.15591
           A3          -0.00942  -0.00343   0.08157  -0.02818   0.00204
           D1          -0.00644   0.06044  -0.08660   0.00501  -0.00299
                          A3        D1
           A3           0.15003
           D1          -0.00714   0.02347
 ITU=  1  0  0  1  1  1  0
 Use linear search instead of GDIIS.
     Eigenvalues ---    0.03875   0.14785   0.15688   0.50168   0.56612
     Eigenvalues ---    0.74268
 RFO step:  Lambda=-1.93488046D-03 EMin= 3.87500153D-02
 Quartic linear search produced a step of -0.28988.
 Iteration  1 RMS(Cart)=  0.04499752 RMS(Int)=  0.00397740
 Iteration  2 RMS(Cart)=  0.00289025 RMS(Int)=  0.00228918
 Iteration  3 RMS(Cart)=  0.00001225 RMS(Int)=  0.00228914
 Iteration  4 RMS(Cart)=  0.00000005 RMS(Int)=  0.00228914
 Variable       Old X    -DE/DX   Delta X   Delta X   Delta X     New X
                                 (Linear)    (Quad)   (Total)
    R1        1.88483  -0.01090  -0.01025  -0.00920  -0.01945   1.86538
    R2        1.90018  -0.01662   0.00929  -0.04950  -0.04021   1.85997
    R3        1.84591   0.00667   0.00761   0.01145   0.01906   1.86497
    A1        1.86037   0.00674   0.05103   0.06280   0.10984   1.97022
    A2        1.98804  -0.00710  -0.05971   0.04229  -0.01995   1.96809
    A3        1.91748   0.00211   0.01702   0.03739   0.05189   1.96937
    D1        2.08546   0.00541   0.03436   0.13524   0.17244   2.25790
         Item               Value     Threshold  Converged?
 Maximum Force            0.016623     0.000450     NO 
 RMS     Force            0.009019     0.000300     NO 
 Maximum Displacement     0.077528     0.001800     NO 
 RMS     Displacement     0.044082     0.001200     NO 
 Predicted change in Energy=-1.536343D-03
 GradGradGradGradGradGradGradGradGradGradGradGradGradGradGradGradGradGrad

                          Input orientation:                          
 ---------------------------------------------------------------------
 Center     Atomic      Atomic             Coordinates (Angstroms)
 Number     Number       Type             X           Y           Z
 ---------------------------------------------------------------------
      1          8           0       -0.058763   -0.067868   -0.041694
      2          1           0        0.146368   -0.919835    0.412695
      3          1           0       -0.928589    0.308098    0.224401
      4          1           0        0.052120   -0.120991   -1.020904
 ---------------------------------------------------------------------
                    Distance matrix (angstroms):
                    1          2          3          4
     1  O    0.000000
     2  H    0.987115   0.000000
     3  H    0.984253   1.642804   0.000000
     4  H    0.986898   1.643849   1.642160   0.000000
 Stoichiometry    H3O(1+)
 Framework group  C1[X(H3O)]
 Deg. of freedom     6
 Full point group                 C1      NOp   1
 Largest Abelian subgroup         C1      NOp   1
 Largest concise Abelian subgroup C1      NOp   1
                         Standard orientation:                         
 ---------------------------------------------------------------------
 Center     Atomic      Atomic             Coordinates (Angstroms)
 Number     Number       Type             X           Y           Z
 ---------------------------------------------------------------------
      1          8           0        0.000057   -0.000424   -0.073496
      2          1           0       -0.898105    0.308179    0.195699
      3          1           0        0.182596   -0.929112    0.196636
      4          1           0        0.715056    0.624327    0.195630
 ---------------------------------------------------------------------
 Rotational constants (GHZ):    327.4827272    326.7936800    185.7756739
 Standard basis: 6-31G(d,p) (6D, 7F)
 There are    30 symmetry adapted basis functions of A   symmetry.
 Integral buffers will be    131072 words long.
 Raffenetti 2 integral format.
 Two-electron integral symmetry is turned on.
    30 basis functions,    49 primitive gaussians,    30 cartesian basis functions
     5 alpha electrons        5 beta electrons
       nuclear repulsion energy        13.8457218878 Hartrees.
 NAtoms=    4 NActive=    4 NUniq=    4 SFac= 1.00D+00 NAtFMM=   60 NAOKFM=F Big=F
 One-electron integrals computed using PRISM.
 NBasis=    30 RedAO= T  NBF=    30
 NBsUse=    30 1.00D-06 NBFU=    30
 Initial guess read from the read-write file.
 B after Tr=     0.000000    0.000000    0.000000
         Rot=    1.000000    0.000000    0.000000    0.000000 Ang=   0.00 deg.
 Initial guess orbital symmetries:
       Occupied  (A) (A) (A) (A) (A)
       Virtual   (A) (A) (A) (A) (A) (A) (A) (A) (A) (A) (A) (A)
                 (A) (A) (A) (A) (A) (A) (A) (A) (A) (A) (A) (A)
                 (A)
 Harris functional with IExCor=  402 diagonalized for initial guess.
 ExpMin= 1.61D-01 ExpMax= 5.48D+03 ExpMxC= 8.25D+02 IAcc=1 IRadAn=         1 AccDes= 0.00D+00
 HarFok:  IExCor=  402 AccDes= 0.00D+00 IRadAn=         1 IDoV= 1
 ScaDFX=  1.000000  1.000000  1.000000  1.000000
 FoFCou: FMM=F IPFlag=           0 FMFlag=      100000 FMFlg1=           0
         NFxFlg=           0 DoJE=T BraDBF=F KetDBF=T FulRan=T
         Omega=  0.000000  0.000000  1.000000  0.000000  0.000000 ICntrl=     500 IOpCl=  0
         NMat0=    1 NMatS0=    1 NMatT0=    0 NMatD0=    1 NMtDS0=    0 NMtDT0=    0
         I1Cent=           4 NGrid=           0.
 Petite list used in FoFCou.
 Requested convergence on RMS density matrix=1.00D-08 within 128 cycles.
 Requested convergence on MAX density matrix=1.00D-06.
 Requested convergence on             energy=1.00D-06.
 No special actions if energy rises.
 Keep R1 ints in memory in canonical form, NReq=1020932.
 Integral accuracy reduced to 1.0D-05 until final iterations.
 Initial convergence to 1.0D-05 achieved.  Increase integral accuracy.
 SCF Done:  E(RB3LYP) =  -76.7055842477     A.U. after   10 cycles
             Convg  =    0.2953D-08             -V/T =  2.0095
 Calling FoFJK, ICntrl=      2127 FMM=F ISym2X=0 I1Cent= 0 IOpClX= 0 NMat=1 NMatS=1 NMatT=0.
 ***** Axes restored to original set *****
 -------------------------------------------------------------------
 Center     Atomic                   Forces (Hartrees/Bohr)
 Number     Number              X              Y              Z
 -------------------------------------------------------------------
      1        8          -0.000649791   -0.003815944   -0.001983142
      2        1          -0.000729529    0.003818343   -0.001733163
      3        1           0.001641298   -0.000471806   -0.000309055
      4        1          -0.000261979    0.000469407    0.004025360
 -------------------------------------------------------------------
 Cartesian Forces:  Max     0.004025360 RMS     0.002170576

 GradGradGradGradGradGradGradGradGradGradGradGradGradGradGradGradGradGrad
 Berny optimization.
 Using GEDIIS/GDIIS optimizer.
 Internal  Forces:  Max     0.004245347 RMS     0.002321953
 Search for a local minimum.
 Step number   8 out of a maximum of   20
 All quantities printed in internal units (Hartrees-Bohrs-Radians)
 Mixed Optimization -- RFO/linear search
 Update second derivatives using D2CorX and points    6    7    8
 DE= -1.51D-03 DEPred=-1.54D-03 R= 9.82D-01
 SS=  1.41D+00  RLast= 2.17D-01 DXNew= 1.5459D+00 6.5212D-01
 Trust test= 9.82D-01 RLast= 2.17D-01 DXMaxT set to 9.19D-01
 The second derivative matrix:
                          R1        R2        R3        A1        A2
           R1           0.49395
           R2          -0.01879   0.51978
           R3           0.00552  -0.04431   0.76289
           A1           0.04303   0.02868   0.02903   0.07130
           A2           0.01906   0.04732   0.03800  -0.02396   0.14844
           A3           0.00459   0.03242   0.07788  -0.04541  -0.00592
           D1          -0.01445   0.01497  -0.06938   0.01341  -0.00015
                          A3        D1
           A3           0.14123
           D1          -0.00395   0.03107
 ITU=  1  1  0  0  1  1  1  0
 Use linear search instead of GDIIS.
     Eigenvalues ---    0.03766   0.14514   0.15638   0.48496   0.52730
     Eigenvalues ---    0.77599
 RFO step:  Lambda=-6.96496663D-05 EMin= 3.76552541D-02
 Quartic linear search produced a step of  0.05502.
 Iteration  1 RMS(Cart)=  0.00453163 RMS(Int)=  0.00013388
 Iteration  2 RMS(Cart)=  0.00003251 RMS(Int)=  0.00012932
 Iteration  3 RMS(Cart)=  0.00000000 RMS(Int)=  0.00012932
 Variable       Old X    -DE/DX   Delta X   Delta X   Delta X     New X
                                 (Linear)    (Quad)   (Total)
    R1        1.86538  -0.00425  -0.00107  -0.00783  -0.00890   1.85647
    R2        1.85997  -0.00171  -0.00221  -0.00326  -0.00547   1.85449
    R3        1.86497  -0.00405   0.00105  -0.00630  -0.00525   1.85972
    A1        1.97022  -0.00009   0.00604  -0.00252   0.00330   1.97352
    A2        1.96809   0.00037  -0.00110   0.00619   0.00494   1.97304
    A3        1.96937   0.00024   0.00286   0.00259   0.00530   1.97467
    D1        2.25790   0.00043   0.00949   0.00427   0.01392   2.27182
         Item               Value     Threshold  Converged?
 Maximum Force            0.004245     0.000450     NO 
 RMS     Force            0.002322     0.000300     NO 
 Maximum Displacement     0.006053     0.001800     NO 
 RMS     Displacement     0.004544     0.001200     NO 
 Predicted change in Energy=-3.807814D-05
 GradGradGradGradGradGradGradGradGradGradGradGradGradGradGradGradGradGrad

                          Input orientation:                          
 ---------------------------------------------------------------------
 Center     Atomic      Atomic             Coordinates (Angstroms)
 Number     Number       Type             X           Y           Z
 ---------------------------------------------------------------------
      1          8           0       -0.061602   -0.071071   -0.043079
      2          1           0        0.146021   -0.916675    0.411856
      3          1           0       -0.926344    0.307652    0.224967
      4          1           0        0.053061   -0.120503   -1.019246
 ---------------------------------------------------------------------
                    Distance matrix (angstroms):
                    1          2          3          4
     1  O    0.000000
     2  H    0.982404   0.000000
     3  H    0.981356   1.638252   0.000000
     4  H    0.984121   1.640300   1.640310   0.000000
 Stoichiometry    H3O(1+)
 Framework group  C1[X(H3O)]
 Deg. of freedom     6
 Full point group                 C1      NOp   1
 Largest Abelian subgroup         C1      NOp   1
 Largest concise Abelian subgroup C1      NOp   1
                         Standard orientation:                         
 ---------------------------------------------------------------------
 Center     Atomic      Atomic             Coordinates (Angstroms)
 Number     Number       Type             X           Y           Z
 ---------------------------------------------------------------------
      1          8           0       -0.000234   -0.000194   -0.071866
      2          1           0       -0.471083    0.820795    0.191566
      3          1           0       -0.475090   -0.817452    0.192066
      4          1           0        0.948047   -0.001794    0.191296
 ---------------------------------------------------------------------
 Rotational constants (GHZ):    330.5288297    329.5540355    186.5283139
 Standard basis: 6-31G(d,p) (6D, 7F)
 There are    30 symmetry adapted basis functions of A   symmetry.
 Integral buffers will be    131072 words long.
 Raffenetti 2 integral format.
 Two-electron integral symmetry is turned on.
    30 basis functions,    49 primitive gaussians,    30 cartesian basis functions
     5 alpha electrons        5 beta electrons
       nuclear repulsion energy        13.8930473889 Hartrees.
 NAtoms=    4 NActive=    4 NUniq=    4 SFac= 1.00D+00 NAtFMM=   60 NAOKFM=F Big=F
 One-electron integrals computed using PRISM.
 NBasis=    30 RedAO= T  NBF=    30
 NBsUse=    30 1.00D-06 NBFU=    30
 Initial guess read from the read-write file.
 B after Tr=     0.000000    0.000000    0.000000
         Rot=    1.000000    0.000000    0.000000    0.000000 Ang=   0.00 deg.
 Initial guess orbital symmetries:
       Occupied  (A) (A) (A) (A) (A)
       Virtual   (A) (A) (A) (A) (A) (A) (A) (A) (A) (A) (A) (A)
                 (A) (A) (A) (A) (A) (A) (A) (A) (A) (A) (A) (A)
                 (A)
 Requested convergence on RMS density matrix=1.00D-08 within 128 cycles.
 Requested convergence on MAX density matrix=1.00D-06.
 Requested convergence on             energy=1.00D-06.
 No special actions if energy rises.
 Keep R1 ints in memory in canonical form, NReq=1020932.
 SCF Done:  E(RB3LYP) =  -76.7056287695     A.U. after    8 cycles
             Convg  =    0.2404D-08             -V/T =  2.0093
 Calling FoFJK, ICntrl=      2127 FMM=F ISym2X=0 I1Cent= 0 IOpClX= 0 NMat=1 NMatS=1 NMatT=0.
 ***** Axes restored to original set *****
 -------------------------------------------------------------------
 Center     Atomic                   Forces (Hartrees/Bohr)
 Number     Number              X              Y              Z
 -------------------------------------------------------------------
      1        8           0.000552393   -0.001046354   -0.001970279
      2        1           0.000129026    0.000288469    0.000016514
      3        1          -0.000556775    0.000470530    0.000201619
      4        1          -0.000124645    0.000287355    0.001752146
 -------------------------------------------------------------------
 Cartesian Forces:  Max     0.001970279 RMS     0.000871890

 GradGradGradGradGradGradGradGradGradGradGradGradGradGradGradGradGradGrad
 Berny optimization.
 Using GEDIIS/GDIIS optimizer.
 Internal  Forces:  Max     0.001767157 RMS     0.000742239
 Search for a local minimum.
 Step number   9 out of a maximum of   20
 All quantities printed in internal units (Hartrees-Bohrs-Radians)
 Mixed Optimization -- En-DIIS/RFO-DIIS
 Update second derivatives using D2CorX and points    6    7    8    9
 DE= -4.45D-05 DEPred=-3.81D-05 R= 1.17D+00
 SS=  1.41D+00  RLast= 1.98D-02 DXNew= 1.5459D+00 5.9539D-02
 Trust test= 1.17D+00 RLast= 1.98D-02 DXMaxT set to 9.19D-01
 The second derivative matrix:
                          R1        R2        R3        A1        A2
           R1           0.51387
           R2           0.03975   0.59028
           R3          -0.07225  -0.06601   0.64935
           A1           0.01315   0.02123   0.00295   0.07127
           A2           0.00889   0.04298   0.03516  -0.02816   0.14345
           A3          -0.01627   0.02267   0.06603  -0.04468  -0.00793
           D1           0.02732   0.02845  -0.02965   0.01826   0.00452
                          A3        D1
           A3           0.14249
           D1          -0.00261   0.02026
 ITU=  1  1  1  0  0  1  1  1
 Use linear search instead of GDIIS.
     Eigenvalues ---    0.03255   0.14422   0.15555   0.48213   0.55544
     Eigenvalues ---    0.72998
 RFO step:  Lambda=-7.09271319D-06 EMin= 3.25492444D-02
 Quartic linear search produced a step of  0.22077.
 Iteration  1 RMS(Cart)=  0.00233139 RMS(Int)=  0.00002351
 Iteration  2 RMS(Cart)=  0.00000942 RMS(Int)=  0.00002147
 Iteration  3 RMS(Cart)=  0.00000000 RMS(Int)=  0.00002147
 Variable       Old X    -DE/DX   Delta X   Delta X   Delta X     New X
                                 (Linear)    (Quad)   (Total)
    R1        1.85647  -0.00021  -0.00197   0.00054  -0.00143   1.85504
    R2        1.85449   0.00073  -0.00121   0.00125   0.00005   1.85454
    R3        1.85972  -0.00177  -0.00116  -0.00179  -0.00295   1.85677
    A1        1.97352   0.00005   0.00073   0.00211   0.00280   1.97632
    A2        1.97304   0.00023   0.00109   0.00214   0.00320   1.97624
    A3        1.97467   0.00004   0.00117   0.00194   0.00308   1.97775
    D1        2.27182   0.00032   0.00307   0.00674   0.00984   2.28166
         Item               Value     Threshold  Converged?
 Maximum Force            0.001767     0.000450     NO 
 RMS     Force            0.000742     0.000300     NO 
 Maximum Displacement     0.003538     0.001800     NO 
 RMS     Displacement     0.002331     0.001200     NO 
 Predicted change in Energy=-4.581424D-06
 GradGradGradGradGradGradGradGradGradGradGradGradGradGradGradGradGradGrad

                          Input orientation:                          
 ---------------------------------------------------------------------
 Center     Atomic      Atomic             Coordinates (Angstroms)
 Number     Number       Type             X           Y           Z
 ---------------------------------------------------------------------
      1          8           0       -0.063229   -0.072944   -0.044271
      2          1           0        0.146863   -0.916289    0.412085
      3          1           0       -0.926241    0.308630    0.225391
      4          1           0        0.053744   -0.119994   -1.018707
 ---------------------------------------------------------------------
                    Distance matrix (angstroms):
                    1          2          3          4
     1  O    0.000000
     2  H    0.981647   0.000000
     3  H    0.981379   1.639156   0.000000
     4  H    0.982559   1.640098   1.640691   0.000000
 Stoichiometry    H3O(1+)
 Framework group  C1[X(H3O)]
 Deg. of freedom     6
 Full point group                 C1      NOp   1
 Largest Abelian subgroup         C1      NOp   1
 Largest concise Abelian subgroup C1      NOp   1
                         Standard orientation:                         
 ---------------------------------------------------------------------
 Center     Atomic      Atomic             Coordinates (Angstroms)
 Number     Number       Type             X           Y           Z
 ---------------------------------------------------------------------
      1          8           0       -0.000095   -0.000093   -0.070877
      2          1           0       -0.303947    0.896462    0.188921
      3          1           0       -0.624636   -0.711018    0.189199
[...]
      2          1           0        0.147521   -0.916519    0.412440
      3          1           0       -0.926452    0.309375    0.225426
      4          1           0        0.053930   -0.119594   -1.018555
 ---------------------------------------------------------------------
                    Distance matrix (angstroms):
                    1          2          3          4
     1  O    0.000000
     2  H    0.981755   0.000000
     3  H    0.981813   1.640490   0.000000
     4  H    0.981905   1.640608   1.640930   0.000000
 Stoichiometry    H3O(1+)
 Framework group  C1[X(H3O)]
 Deg. of freedom     6
 Full point group                 C1      NOp   1
 Largest Abelian subgroup         C1      NOp   1
 Largest concise Abelian subgroup C1      NOp   1
                         Standard orientation:                         
 ---------------------------------------------------------------------
 Center     Atomic      Atomic             Coordinates (Angstroms)
 Number     Number       Type             X           Y           Z
 ---------------------------------------------------------------------
      1          8           0       -0.000002   -0.000023   -0.070439
      2          1           0       -0.123556    0.939066    0.187804
      3          1           0       -0.751676   -0.576413    0.187860
      4          1           0        0.875247   -0.362467    0.187847
 ---------------------------------------------------------------------
 Rotational constants (GHZ):    331.2595216    331.0709249    186.2885895
 Standard basis: 6-31G(d,p) (6D, 7F)
 There are    30 symmetry adapted basis functions of A   symmetry.
 Integral buffers will be    131072 words long.
 Raffenetti 2 integral format.
 Two-electron integral symmetry is turned on.
    30 basis functions,    49 primitive gaussians,    30 cartesian basis functions
     5 alpha electrons        5 beta electrons
       nuclear repulsion energy        13.9029680354 Hartrees.
 NAtoms=    4 NActive=    4 NUniq=    4 SFac= 1.00D+00 NAtFMM=   60 NAOKFM=F Big=F
 One-electron integrals computed using PRISM.
 NBasis=    30 RedAO= T  NBF=    30
 NBsUse=    30 1.00D-06 NBFU=    30
 Initial guess read from the checkpoint file:  h3_b3l.chk
 B after Tr=     0.000000    0.000000    0.000000
         Rot=    1.000000    0.000000    0.000000    0.000000 Ang=   0.00 deg.
 Initial guess orbital symmetries:
       Occupied  (A) (A) (A) (A) (A)
       Virtual   (A) (A) (A) (A) (A) (A) (A) (A) (A) (A) (A) (A)
                 (A) (A) (A) (A) (A) (A) (A) (A) (A) (A) (A) (A)
                 (A)
 Requested convergence on RMS density matrix=1.00D-08 within 128 cycles.
 Requested convergence on MAX density matrix=1.00D-06.
 Requested convergence on             energy=1.00D-06.
 No special actions if energy rises.
 Keep R1 ints in memory in canonical form, NReq=1020932.
 SCF Done:  E(RB3LYP) =  -76.7056365765     A.U. after    1 cycles
             Convg  =    0.9002D-09             -V/T =  2.0092
 Range of M.O.s used for correlation:     1    30
 NBasis=    30 NAE=     5 NBE=     5 NFC=     0 NFV=     0
 NROrb=     30 NOA=     5 NOB=     5 NVA=    25 NVB=    25
 Symmetrizing basis deriv contribution to polar:
 IMax=3 JMax=2 DiffMx= 0.00D+00
 G2DrvN: will do     5 centers at a time, making    1 passes doing MaxLOS=2.
 Calling FoFCou, ICntrl=  3107 FMM=F I1Cent=   0 AccDes= 0.00D+00.
 FoFDir/FoFCou used for L=0 through L=2.
 End of G2Drv Frequency-dependent properties file   721 does not exist.
 End of G2Drv Frequency-dependent properties file   722 does not exist.
          IDoAtm=1111
          Differentiating once with respect to electric field.
                with respect to dipole field.
          Differentiating once with respect to nuclear coordinates.
          Keep R1 ints in memory in canonical form, NReq=929679.
          There are    15 degrees of freedom in the 1st order CPHF.  IDoFFX=5.
     12 vectors produced by pass  0 Test12= 8.33D-16 6.67D-09 XBig12= 1.94D+00 8.70D-01.
 AX will form    12 AO Fock derivatives at one time.
     12 vectors produced by pass  1 Test12= 8.33D-16 6.67D-09 XBig12= 7.31D-02 1.05D-01.
     12 vectors produced by pass  2 Test12= 8.33D-16 6.67D-09 XBig12= 2.16D-04 5.85D-03.
     12 vectors produced by pass  3 Test12= 8.33D-16 6.67D-09 XBig12= 8.33D-08 1.38D-04.
      9 vectors produced by pass  4 Test12= 8.33D-16 6.67D-09 XBig12= 2.12D-11 2.03D-06.
      3 vectors produced by pass  5 Test12= 8.33D-16 6.67D-09 XBig12= 5.88D-15 4.09D-08.
 Inverted reduced A of dimension    60 with in-core refinement.
 Isotropic polarizability for W=    0.000000        4.78 Bohr**3.
 End of Minotr Frequency-dependent properties file   721 does not exist.
 End of Minotr Frequency-dependent properties file   722 does not exist.

 **********************************************************************

            Population analysis using the SCF density.

 **********************************************************************

 Orbital symmetries:
       Occupied  (A) (A) (A) (A) (A)
       Virtual   (A) (A) (A) (A) (A) (A) (A) (A) (A) (A) (A) (A)
                 (A) (A) (A) (A) (A) (A) (A) (A) (A) (A) (A) (A)
                 (A)
 The electronic state is 1-A.
 Alpha  occ. eigenvalues --  -19.59086  -1.45031  -0.93884  -0.93879  -0.73825
 Alpha virt. eigenvalues --   -0.26457  -0.16216  -0.16213   0.40703   0.40714
 Alpha virt. eigenvalues --    0.44745   0.50516   0.62852   0.62853   0.87459
 Alpha virt. eigenvalues --    1.06767   1.06778   1.64278   1.70115   1.89637
 Alpha virt. eigenvalues --    1.89668   2.13800   2.13815   2.29321   2.67620
 Alpha virt. eigenvalues --    2.67659   2.88711   3.07698   3.07725   3.59712
          Condensed to atoms (all electrons):
              1          2          3          4
     1  O    7.477836   0.301289   0.301269   0.301241
     2  H    0.301289   0.260657  -0.011222  -0.011220
     3  H    0.301269  -0.011222   0.260619  -0.011214
     4  H    0.301241  -0.011220  -0.011214   0.260602
 Mulliken atomic charges:
              1
     1  O   -0.381635
     2  H    0.460496
     3  H    0.460548
     4  H    0.460591
 Sum of Mulliken atomic charges =   1.00000
 Mulliken charges with hydrogens summed into heavy atoms:
              1
     1  O    1.000000
 Sum of Mulliken charges with hydrogens summed into heavy atoms =   1.00000
 APT atomic charges:
              1
     1  O   -0.446920
     2  H    0.482241
     3  H    0.482319
     4  H    0.482361
 Sum of APT charges=   1.00000
 APT Atomic charges with hydrogens summed into heavy atoms:
              1
     1  O    1.000000
     2  H    0.000000
     3  H    0.000000
     4  H    0.000000
 Sum of APT charges=   1.00000
 Electronic spatial extent (au):  <R**2>=             18.2936
 Charge=              1.0000 electrons
 Dipole moment (field-independent basis, Debye):
    X=              0.0001    Y=              0.0003    Z=              1.4976  Tot=              1.4976
 Quadrupole moment (field-independent basis, Debye-Ang):
   XX=             -2.3973   YY=             -2.4000   ZZ=             -6.1797
   XY=              0.0000   XZ=              0.0000   YZ=              0.0000
 Traceless Quadrupole moment (field-independent basis, Debye-Ang):
   XX=              1.2617   YY=              1.2590   ZZ=             -2.5207
   XY=              0.0000   XZ=              0.0000   YZ=              0.0000
 Octapole moment (field-independent basis, Debye-Ang**2):
  XXX=              0.6725  YYY=              1.6240  ZZZ=              0.7210  XYY=             -0.6719
  XXY=             -1.6240  XXZ=              0.8923  XZZ=              0.0000  YZZ=              0.0000
  YYZ=              0.8917  XYZ=              0.0000
 Hexadecapole moment (field-independent basis, Debye-Ang**3):
 XXXX=             -3.0367 YYYY=             -3.0390 ZZZZ=             -4.5854 XXXY=              0.0000
 XXXZ=              0.1474 YYYX=             -0.0001 YYYZ=              0.3558 ZZZX=              0.0000
 ZZZY=              0.0000 XXYY=             -1.0129 XXZZ=             -1.5894 YYZZ=             -1.5893
 XXYZ=             -0.3559 YYXZ=             -0.1473 ZZXY=              0.0000
 N-N= 1.390296803536D+01 E-N=-2.044477734544D+02  KE= 7.600410310786D+01
  Exact polarizability:   5.610   0.000   5.608   0.000   0.000   3.116
 Approx polarizability:   6.803   0.000   6.800   0.000   0.000   3.620
 Calling FoFJK, ICntrl=    100127 FMM=F ISym2X=0 I1Cent= 0 IOpClX= 0 NMat=1 NMatS=1 NMatT=0.
 Full mass-weighted force constant matrix:
 Low frequencies ---  -55.8570  -40.5926  -34.9516    0.0015    0.0017    0.0018
 Low frequencies ---  784.6601 1668.5933 1668.9296
 Harmonic frequencies (cm**-1), IR intensities (KM/Mole), Raman scattering
 activities (A**4/AMU), depolarization ratios for plane and unpolarized
 incident light, reduced masses (AMU), force constants (mDyne/A),
 and normal coordinates:
                     1                      2                      3
                     A                      A                      A
 Frequencies --   784.6589              1668.5932              1668.9295
 Red. masses --     1.1722                 1.0682                 1.0682
 Frc consts  --     0.4252                 1.7522                 1.7529
 IR Inten    --   548.7075               121.8613               121.8181
  Atom  AN      X      Y      Z        X      Y      Z        X      Y      Z
     1   8     0.00   0.00   0.10    -0.01   0.06   0.00    -0.06  -0.01   0.00
     2   1    -0.02   0.15  -0.55     0.01   0.12  -0.18     0.78   0.10   0.01
     3   1    -0.12  -0.09  -0.55     0.47  -0.52   0.09     0.14  -0.35  -0.16
     4   1     0.14  -0.06  -0.55    -0.31  -0.59   0.10     0.07   0.42   0.15
                     4                      5                      6
                     A                      A                      A
 Frequencies --  3585.3596              3703.7336              3704.7891
 Red. masses --     1.0167                 1.0906                 1.0906
 Frc consts  --     7.7004                 8.8145                 8.8195
 IR Inten    --    40.3428               503.9385               503.5983
  Atom  AN      X      Y      Z        X      Y      Z        X      Y      Z
     1   8     0.00   0.00   0.02     0.07  -0.02   0.00     0.02   0.07   0.00
     2   1     0.07  -0.55  -0.13    -0.04   0.27   0.07     0.10  -0.74  -0.20
     3   1     0.45   0.34  -0.13    -0.40  -0.31   0.14    -0.47  -0.36   0.16
     4   1    -0.52   0.22  -0.13    -0.71   0.29  -0.21     0.13  -0.05   0.04

 -------------------
 - Thermochemistry -
 -------------------
 Temperature   298.150 Kelvin.  Pressure   1.00000 Atm.
 Atom     1 has atomic number  8 and mass  15.99491
 Atom     2 has atomic number  1 and mass   1.00783
 Atom     3 has atomic number  1 and mass   1.00783
 Atom     4 has atomic number  1 and mass   1.00783
 Molecular mass:    19.01839 amu.
 Principal axes and moments of inertia in atomic units:
                           1         2         3
     Eigenvalues --     5.44812   5.45122   9.68788
           X            1.00000   0.00000   0.00000
           Y            0.00000   1.00000  -0.00001
           Z            0.00000   0.00001   1.00000
 This molecule is an asymmetric top.
 Rotational symmetry number  1.
 Rotational temperatures (Kelvin)     15.89793    15.88888     8.94043
 Rotational constants (GHZ):         331.25952   331.07092   186.28859
 Zero-point vibrational energy      90414.1 (Joules/Mol)
                                   21.60950 (Kcal/Mol)
 Vibrational temperatures:   1128.95  2400.73  2401.21  5158.53  5328.84
          (Kelvin)           5330.36
 
 Zero-point correction=                           0.034437 (Hartree/Particle)
 Thermal correction to Energy=                    0.037357
 Thermal correction to Enthalpy=                  0.038301
 Thermal correction to Gibbs Free Energy=         0.015290
 Sum of electronic and zero-point Energies=            -76.671200
 Sum of electronic and thermal Energies=               -76.668279
 Sum of electronic and thermal Enthalpies=             -76.667335
 Sum of electronic and thermal Free Energies=          -76.690346
 
                     E (Thermal)             CV                S
                      KCal/Mol        Cal/Mol-Kelvin    Cal/Mol-Kelvin
 Total                   23.442              6.720             48.431
 Electronic               0.000              0.000              0.000
 Translational            0.889              2.981             34.771
 Rotational               0.889              2.981             13.429
 Vibrational             21.665              0.758              0.232
                       Q            Log10(Q)             Ln(Q)
 Total Bot       0.926683D-07         -7.033069        -16.194240
 Total V=0       0.640891D+09          8.806784         20.278370
 Vib (Bot)       0.148042D-15        -15.829616        -36.449037
 Vib (V=0)       0.102385D+01          0.010237          0.023572
 Electronic      0.100000D+01          0.000000          0.000000
 Translational   0.325999D+07          6.513216         14.997234
 Rotational      0.192013D+03          2.283331          5.257564
 ***** Axes restored to original set *****
 -------------------------------------------------------------------
 Center     Atomic                   Forces (Hartrees/Bohr)
 Number     Number              X              Y              Z
 -------------------------------------------------------------------
      1        8           0.000036374    0.000028221   -0.000066581
      2        1           0.000069998   -0.000138545    0.000095395
      3        1          -0.000101419    0.000081144    0.000008235
      4        1          -0.000004953    0.000029179   -0.000037049
 -------------------------------------------------------------------
 Cartesian Forces:  Max     0.000138545 RMS     0.000070080

 GradGradGradGradGradGradGradGradGradGradGradGradGradGradGradGradGradGrad
 Berny optimization.
 Internal  Forces:  Max     0.000179080 RMS     0.000086533
 Search for a local minimum.
 Step number   1 out of a maximum of    2
 All quantities printed in internal units (Hartrees-Bohrs-Radians)
 Second derivative matrix not updated -- analytic derivatives used.
 The second derivative matrix:
                          R1        R2        R3        A1        A2
           R1           0.48288
           R2           0.00112   0.48266
           R3           0.00113   0.00111   0.48239
           A1           0.00248   0.00251  -0.00440   0.06246
           A2           0.00764  -0.00040   0.00845  -0.04351   0.09916
           A3          -0.00041   0.00759   0.00842  -0.04348  -0.02951
           D1           0.01043   0.01043   0.00963   0.00775   0.00318
                          A3        D1
           A3           0.09911
           D1           0.00315   0.01719
 ITU=  0
     Eigenvalues ---    0.02071   0.12731   0.12846   0.48156   0.48183
     Eigenvalues ---    0.48595
 Angle between quadratic step and forces=  64.00 degrees.
 Linear search not attempted -- first point.
 Iteration  1 RMS(Cart)=  0.00043312 RMS(Int)=  0.00000029
 Iteration  2 RMS(Cart)=  0.00000016 RMS(Int)=  0.00000023
 Variable       Old X    -DE/DX   Delta X   Delta X   Delta X     New X
                                 (Linear)    (Quad)   (Total)
    R1        1.85525   0.00018   0.00000   0.00033   0.00033   1.85557
    R2        1.85536   0.00012   0.00000   0.00022   0.00022   1.85558
    R3        1.85553   0.00003   0.00000   0.00004   0.00004   1.85557
    A1        1.97795   0.00003   0.00000   0.00063   0.00063   1.97858
    A2        1.97803   0.00003   0.00000   0.00053   0.00053   1.97856
    A3        1.97854  -0.00003   0.00000   0.00006   0.00006   1.97859
    D1        2.28643   0.00004   0.00000   0.00147   0.00147   2.28791
         Item               Value     Threshold  Converged?
 Maximum Force            0.000179     0.000450     YES
 RMS     Force            0.000087     0.000300     YES
 Maximum Displacement     0.000497     0.001800     YES
 RMS     Displacement     0.000433     0.001200     YES
 Predicted change in Energy=-8.696088D-08
 Optimization completed.
    -- Stationary point found.
                           ----------------------------
                           !   Optimized Parameters   !
                           ! (Angstroms and Degrees)  !
 --------------------------                            --------------------------
 ! Name  Definition              Value          Derivative Info.                !
 --------------------------------------------------------------------------------
 ! R1    R(1,2)                  0.9818         -DE/DX =    0.0002              !
 ! R2    R(1,3)                  0.9818         -DE/DX =    0.0001              !
 ! R3    R(1,4)                  0.9819         -DE/DX =    0.0                 !
 ! A1    A(2,1,3)              113.3284         -DE/DX =    0.0                 !
 ! A2    A(2,1,4)              113.3327         -DE/DX =    0.0                 !
 ! A3    A(3,1,4)              113.3617         -DE/DX =    0.0                 !
 ! D1    D(2,1,4,3)            131.0031         -DE/DX =    0.0                 !
 --------------------------------------------------------------------------------
 GradGradGradGradGradGradGradGradGradGradGradGradGradGradGradGradGradGrad

 1\1\GINC-NISER-THINKCENTRE-M93P\Freq\RB3LYP\6-31G(d,p)\H3O1(1+)\STUDEN
 T\01-Mar-2021\0\\#N Geom=AllCheck Guess=TCheck SCRF=Check GenChk RB3LY
 P/6-31G(d,p) Freq\\Title Card Required\\1,1\O,-0.0638628392,-0.0738579
 358,-0.0448137308\H,0.1475210555,-0.9165193211,0.4124403325\H,-0.92645
 22226,0.3093746431,0.2254259594\H,0.0539303663,-0.1195941162,-1.018554
 5211\\Version=EM64L-G09RevC.01\State=1-A\HF=-76.7056366\RMSD=9.002e-10
 \RMSF=7.008e-05\ZeroPoint=0.0344369\Thermal=0.0373573\Dipole=-0.405655
 5,-0.3840856,-0.1873332\DipoleDeriv=-0.4366519,0.0327387,0.0160948,0.0
 327545,-0.4401972,0.015082,0.0160649,0.0150437,-0.4639124,0.4547201,-0
 .0300431,0.0745061,-0.0220042,0.5347626,-0.073035,0.0717293,-0.0793436
 ,0.4572396,0.5433761,-0.0520432,-0.0402226,-0.0613023,0.4893241,0.0686
 208,-0.0453062,0.0679901,0.4142569,0.4385556,0.0493476,-0.0503783,0.05
 0552,0.4161104,-0.0106679,-0.042488,-0.0036901,0.5924159\Polar=4.42700
 24,-1.118413,4.5498053,-0.5464036,-0.5161084,5.3577351\PG=C01 [X(H3O1)
 ]\NImag=0\\0.46820511,-0.28999214,0.50022649,-0.14149915,-0.13396032,0
 .70887842,-0.05415751,0.07895655,-0.00703844,0.05370305,0.10941339,-0.
 35709557,0.18186579,-0.09957818,0.35620928,-0.01753539,0.15785355,-0.1
 4800844,0.02792217,-0.17999561,0.14590916,-0.36888772,0.17584767,0.116
 91760,-0.00174036,-0.00348229,-0.00206929,0.36875679,0.14079615,-0.093
 45025,-0.01681574,0.02804596,-0.00756854,-0.01170803,-0.16706340,0.099
 80982,0.09742070,-0.01912271,-0.09681589,-0.01893481,0.00204825,0.0110
 3551,-0.11319509,0.03205798,0.08711346,-0.04515988,0.03518792,0.031619
 99,0.00219482,-0.00635293,-0.00831748,0.00187128,-0.00177871,0.0347092
 1,0.04109377,0.03978261,-0.04968067,-0.03108972,-0.00742433,0.00845483
 ,0.03385009,-0.00530199,0.00120898,-0.01498353,-0.02705629,0.04001687,
 0.06161385,-0.00477052,-0.46405408,-0.00194892,-0.00391843,-0.00893623
 ,-0.00165321,-0.00353421,-0.00133307,-0.05801172,0.01222315,0.47432338
 \\-0.00003637,-0.00002822,0.00006658,-0.00007000,0.00013854,-0.0000954
 0,0.00010142,-0.00008114,-0.00000823,0.00000495,-0.00002918,0.00003705
 \\\@


 THOSE WHO ASPIRE NOT TO GUESS AND DIVINE,
 BUT TO DISCOVER AND KNOW, WHO PROPOSE NOT TO DEVISE 
 MIMIC AND FABULOUS WORLDS OF THEIR OWN, BUT TO 
 EXAMINE AND DISSECT THE NATURE OF THIS VERY WORLD 
 ITSELF, MUST GO TO THE FACTS THEMSELVES FOR EVERYTHING.

                               -- FRANCIS BACON, 1620
 Job cpu time:  0 days  0 hours  0 minutes  3.0 seconds.
 File lengths (MBytes):  RWF=      5 Int=      0 D2E=      0 Chk=      1 Scr=      1
 Normal termination of Gaussian 09 at Mon Mar  1 16:28:17 2021.
