 Entering Gaussian System, Link 0=g09
 Input=test1.com
 Output=test1.log
 Initial command:
 /home/student/g09/l1.exe /home/student/singh/Gau-14929.inp -scrdir=/home/student/singh/
 Entering Link 1 = /home/student/g09/l1.exe PID=     14932.
  
 Copyright (c) 1988,1990,1992,1993,1995,1998,2003,2009,2011,
            Gaussian, Inc.  All Rights Reserved.
  
 This is part of the Gaussian(R) 09 program.  It is based on
 the Gaussian(R) 03 system (copyright 2003, Gaussian, Inc.),
 the Gaussian(R) 98 system (copyright 1998, Gaussian, Inc.),
 the Gaussian(R) 94 system (copyright 1995, Gaussian, Inc.),
 the Gaussian 92(TM) system (copyright 1992, Gaussian, Inc.),
 the Gaussian 90(TM) system (copyright 1990, Gaussian, Inc.),
 the Gaussian 88(TM) system (copyright 1988, Gaussian, Inc.),
 the Gaussian 86(TM) system (copyright 1986, Carnegie Mellon
 University), and the Gaussian 82(TM) system (copyright 1983,
 Carnegie Mellon University). Gaussian is a federally registered
 trademark of Gaussian, Inc.
  
 This software contains proprietary and confidential information,
 including trade secrets, belonging to Gaussian, Inc.
  
 This software is provided under written license and may be
 used, copied, transmitted, or stored only in accord with that
 written license.
  
 The following legend is applicable only to US Government
 contracts under FAR:
  
                    RESTRICTED RIGHTS LEGEND
  
 Use, reproduction and disclosure by the US Government is
 subject to restrictions as set forth in subparagraphs (a)
 and (c) of the Commercial Computer Software - Restricted
 Rights clause in FAR 52.227-19.
  
 Gaussian, Inc.
 340 Quinnipiac St., Bldg. 40, Wallingford CT 06492
  
  
 ---------------------------------------------------------------
 Warning -- This program may not be used in any manner that
 competes with the business of Gaussian, Inc. or will provide
 assistance to any competitor of Gaussian, Inc.  The licensee
 of this program is prohibited from giving any competitor of
 Gaussian, Inc. access to this program.  By using this program,
 the user acknowledges that Gaussian, Inc. is engaged in the
 business of creating and licensing software in the field of
 computational chemistry and represents and warrants to the
 licensee that it is not a competitor of Gaussian, Inc. and that
 it will not use this program in any manner prohibited above.
 ---------------------------------------------------------------
  

 Cite this work as:
 Gaussian 09, Revision C.01,
 M. J. Frisch, G. W. Trucks, H. B. Schlegel, G. E. Scuseria, 
 M. A. Robb, J. R. Cheeseman, G. Scalmani, V. Barone, B. Mennucci, 
 G. A. Petersson, H. Nakatsuji, M. Caricato, X. Li, H. P. Hratchian, 
 A. F. Izmaylov, J. Bloino, G. Zheng, J. L. Sonnenberg, M. Hada, 
 M. Ehara, K. Toyota, R. Fukuda, J. Hasegawa, M. Ishida, T. Nakajima, 
 Y. Honda, O. Kitao, H. Nakai, T. Vreven, J. A. Montgomery, Jr., 
 J. E. Peralta, F. Ogliaro, M. Bearpark, J. J. Heyd, E. Brothers, 
 K. N. Kudin, V. N. Staroverov, T. Keith, R. Kobayashi, J. Normand, 
 K. Raghavachari, A. Rendell, J. C. Burant, S. S. Iyengar, J. Tomasi, 
 M. Cossi, N. Rega, J. M. Millam, M. Klene, J. E. Knox, J. B. Cross, 
 V. Bakken, C. Adamo, J. Jaramillo, R. Gomperts, R. E. Stratmann, 
 O. Yazyev, A. J. Austin, R. Cammi, C. Pomelli, J. W. Ochterski, 
 R. L. Martin, K. Morokuma, V. G. Zakrzewski, G. A. Voth, 
 P. Salvador, J. J. Dannenberg, S. Dapprich, A. D. Daniels, 
 O. Farkas, J. B. Foresman, J. V. Ortiz, J. Cioslowski, 
 and D. J. Fox, Gaussian, Inc., Wallingford CT, 2010.
 
 ******************************************
 Gaussian 09:  EM64L-G09RevC.01 23-Sep-2011
                 1-Mar-2021 
 ******************************************
 ---------------
 #hf/6-31g** opt
 ---------------
 1/18=20,19=15,38=1/1,3;
 2/9=110,12=2,17=6,18=5,40=1/2;
 3/5=1,6=6,7=101,11=9,16=1,25=1,30=1,71=1/1,2,3;
 4//1;
 5/5=2,38=5/2;
 6/7=2,8=2,9=2,10=2,28=1/1;
 7//1,2,3,16;
 1/18=20,19=15/3(2);
 2/9=110/2;
 99//99;
 2/9=110/2;
 3/5=1,6=6,7=101,11=9,16=1,25=1,30=1,71=1/1,2,3;
 4/5=5,16=3/1;
 5/5=2,38=5/2;
 7//1,2,3,16;
 1/18=20,19=15/3(-5);
 2/9=110/2;
 6/7=2,8=2,9=2,10=2,19=2,28=1/1;
 99/9=1/99;
 --
 xx
 --
 Charge =  1 Multiplicity = 1
 Symbolic Z-Matrix:
 o
 h                    1    ho2
 h                    1    ho3      2    hoh3
 h                    1    ho4      3    hoh4     2    dih4     0
       Variables:
  ho2                   0.96127                  
  ho3                   0.96127                  
  hoh3                114.738                    
  ho4                   0.96127                  
  hoh4                114.738                    
  dih4               -136.                       
 

 GradGradGradGradGradGradGradGradGradGradGradGradGradGradGradGradGradGrad
 Berny optimization.
 Initialization pass.
                           ----------------------------
                           !    Initial Parameters    !
                           ! (Angstroms and Degrees)  !
 --------------------------                            --------------------------
 ! Name  Definition              Value          Derivative Info.                !
 --------------------------------------------------------------------------------
 ! R1    R(1,2)                  0.9613         estimate D2E/DX2                !
 ! R2    R(1,3)                  0.9613         estimate D2E/DX2                !
 ! R3    R(1,4)                  0.9613         estimate D2E/DX2                !
 ! A1    A(2,1,3)              114.738          estimate D2E/DX2                !
 ! A2    A(2,1,4)              114.7244         estimate D2E/DX2                !
 ! A3    A(3,1,4)              114.738          estimate D2E/DX2                !
 ! D1    D(2,1,4,3)           -136.006          estimate D2E/DX2                !
 --------------------------------------------------------------------------------
 Trust Radius=3.00D-01 FncErr=1.00D-07 GrdErr=1.00D-07
 Number of steps in this run=     20 maximum allowed number of steps=    100.
 GradGradGradGradGradGradGradGradGradGradGradGradGradGradGradGradGradGrad

                          Input orientation:                          
 ---------------------------------------------------------------------
 Center     Atomic      Atomic             Coordinates (Angstroms)
 Number     Number       Type             X           Y           Z
 ---------------------------------------------------------------------
      1          8           0        0.000000    0.000000    0.000000
      2          1           0        0.000000    0.000000    0.961268
      3          1           0        0.873053    0.000000   -0.402261
      4          1           0       -0.628154   -0.606474   -0.402055
 ---------------------------------------------------------------------
                    Distance matrix (angstroms):
                    1          2          3          4
     1  O    0.000000
     2  H    0.961268   0.000000
     3  H    0.961268   1.619084   0.000000
     4  H    0.961268   1.618962   1.619084   0.000000
 Stoichiometry    H3O(1+)
 Framework group  CS[SG(HO),X(H2)]
 Deg. of freedom     4
 Full point group                 CS      NOp   2
 Largest Abelian subgroup         CS      NOp   2
 Largest concise Abelian subgroup CS      NOp   2
                         Standard orientation:                         
 ---------------------------------------------------------------------
 Center     Atomic      Atomic             Coordinates (Angstroms)
 Number     Number       Type             X           Y           Z
 ---------------------------------------------------------------------
      1          8           0        0.000000    0.061147    0.000000
      2          1           0       -0.467401   -0.163158    0.809481
      3          1           0        0.934802   -0.162863    0.000000
      4          1           0       -0.467401   -0.163158   -0.809481
 ---------------------------------------------------------------------
 Rotational constants (GHZ):    348.8746225    348.8103634    191.3000175
 Standard basis: 6-31G(d,p) (6D, 7F)
 There are    20 symmetry adapted basis functions of A'  symmetry.
 There are    10 symmetry adapted basis functions of A"  symmetry.
 Integral buffers will be    131072 words long.
 Raffenetti 1 integral format.
 Two-electron integral symmetry is turned on.
    30 basis functions,    49 primitive gaussians,    30 cartesian basis functions
     5 alpha electrons        5 beta electrons
       nuclear repulsion energy        14.1925161198 Hartrees.
 NAtoms=    4 NActive=    4 NUniq=    3 SFac= 1.78D+00 NAtFMM=   60 NAOKFM=F Big=F
 One-electron integrals computed using PRISM.
 NBasis=    30 RedAO= T  NBF=    20    10
 NBsUse=    30 1.00D-06 NBFU=    20    10
 Harris functional with IExCor=  205 diagonalized for initial guess.
 ExpMin= 1.61D-01 ExpMax= 5.48D+03 ExpMxC= 8.25D+02 IAcc=1 IRadAn=         1 AccDes= 0.00D+00
 HarFok:  IExCor=  205 AccDes= 0.00D+00 IRadAn=         1 IDoV= 1
 ScaDFX=  1.000000  1.000000  1.000000  1.000000
 FoFCou: FMM=F IPFlag=           0 FMFlag=      100000 FMFlg1=           0
         NFxFlg=           0 DoJE=T BraDBF=F KetDBF=T FulRan=T
         Omega=  0.000000  0.000000  1.000000  0.000000  0.000000 ICntrl=     500 IOpCl=  0
         NMat0=    1 NMatS0=    1 NMatT0=    0 NMatD0=    1 NMtDS0=    0 NMtDT0=    0
         I1Cent=           4 NGrid=           0.
 Petite list used in FoFCou.
 Initial guess orbital symmetries:
       Occupied  (A') (A') (A') (A") (A')
       Virtual   (A') (A') (A") (A") (A') (A') (A') (A") (A') (A')
                 (A') (A") (A') (A") (A') (A") (A") (A') (A') (A")
                 (A') (A') (A') (A") (A')
 The electronic state of the initial guess is 1-A'.
 Requested convergence on RMS density matrix=1.00D-08 within 128 cycles.
 Requested convergence on MAX density matrix=1.00D-06.
 Requested convergence on             energy=1.00D-06.
 No special actions if energy rises.
 Keep R1 ints in memory in canonical form, NReq=949659.
 SCF Done:  E(RHF) =  -76.3103248092     A.U. after    9 cycles
             Convg  =    0.3127D-08             -V/T =  2.0030

 **********************************************************************

            Population analysis using the SCF density.

 **********************************************************************

 Orbital symmetries:
       Occupied  (A') (A') (A') (A") (A')
       Virtual   (A') (A") (A') (A") (A') (A') (A') (A") (A') (A')
                 (A') (A") (A') (A") (A') (A") (A") (A') (A') (A")
                 (A') (A') (A') (A") (A')
 The electronic state is 1-A'.
 Alpha  occ. eigenvalues --  -21.01190  -1.80918  -1.14907  -1.14903  -0.95001
 Alpha virt. eigenvalues --   -0.10805   0.00409   0.00409   0.64673   0.64681
 Alpha virt. eigenvalues --    0.70559   0.76254   0.89630   0.89630   1.09784
 Alpha virt. eigenvalues --    1.34326   1.34330   1.98632   1.99913   2.21541
 Alpha virt. eigenvalues --    2.21549   2.51576   2.51587   2.57964   3.03337
 Alpha virt. eigenvalues --    3.03351   3.31112   3.47957   3.47966   4.04741
          Condensed to atoms (all electrons):
              1          2          3          4
     1  O    7.512306   0.308810   0.308807   0.308810
     2  H    0.308810   0.228327  -0.008354  -0.008357
     3  H    0.308807  -0.008354   0.228315  -0.008354
     4  H    0.308810  -0.008357  -0.008354   0.228327
 Mulliken atomic charges:
              1
     1  O   -0.438734
     2  H    0.479574
     3  H    0.479587
     4  H    0.479574
 Sum of Mulliken atomic charges =   1.00000
 Mulliken charges with hydrogens summed into heavy atoms:
              1
     1  O    1.000000
 Sum of Mulliken charges with hydrogens summed into heavy atoms =   1.00000
 Electronic spatial extent (au):  <R**2>=             17.8771
 Charge=              1.0000 electrons
 Dipole moment (field-independent basis, Debye):
    X=              0.0001    Y=             -1.3616    Z=              0.0000  Tot=              1.3616
 Quadrupole moment (field-independent basis, Debye-Ang):
   XX=             -2.3378   YY=             -6.2515   ZZ=             -2.3386
   XY=              0.0009   XZ=              0.0000   YZ=              0.0000
 Traceless Quadrupole moment (field-independent basis, Debye-Ang):
   XX=              1.3049   YY=             -2.6088   ZZ=              1.3040
   XY=              0.0009   XZ=              0.0000   YZ=              0.0000
 Octapole moment (field-independent basis, Debye-Ang**2):
  XXX=              1.7825  YYY=             -0.6772  ZZZ=              0.0000  XYY=             -0.0002
  XXY=             -0.8136  XXZ=              0.0000  XZZ=             -1.7820  YZZ=             -0.8142
  YYZ=              0.0000  XYZ=              0.0000
 Hexadecapole moment (field-independent basis, Debye-Ang**3):
 XXXX=             -2.7110 YYYY=             -4.4876 ZZZZ=             -2.7120 XXXY=             -0.3407
 XXXZ=              0.0000 YYYX=             -0.0001 YYYZ=              0.0000 ZZZX=              0.0000
 ZZZY=              0.0000 XXYY=             -1.5552 XXZZ=             -0.9038 YYZZ=             -1.5549
 XXYZ=              0.0000 YYXZ=              0.0000 ZZXY=              0.3413
 N-N= 1.419251611975D+01 E-N=-2.049493696711D+02  KE= 7.608204645809D+01
 Symmetry A'   KE= 7.221814054234D+01
 Symmetry A"   KE= 3.863905915751D+00
 Calling FoFJK, ICntrl=      2127 FMM=F ISym2X=1 I1Cent= 0 IOpClX= 0 NMat=1 NMatS=1 NMatT=0.
 ***** Axes restored to original set *****
 -------------------------------------------------------------------
 Center     Atomic                   Forces (Hartrees/Bohr)
 Number     Number              X              Y              Z
 -------------------------------------------------------------------
      1        8          -0.000018228   -0.000015245    0.000015180
      2        1           0.000013082    0.000012099    0.000002176
      3        1           0.000000941   -0.000000382   -0.000000264
      4        1           0.000004204    0.000003528   -0.000017093
 -------------------------------------------------------------------
 Cartesian Forces:  Max     0.000018228 RMS     0.000010957

 GradGradGradGradGradGradGradGradGradGradGradGradGradGradGradGradGradGrad
 Berny optimization.
 Internal  Forces:  Max     0.000025421 RMS     0.000010900
 Search for a local minimum.
 Step number   1 out of a maximum of   20
 All quantities printed in internal units (Hartrees-Bohrs-Radians)
 Mixed Optimization -- En-DIIS/RFO-DIIS
 Second derivative matrix not updated -- first step.
 The second derivative matrix:
                          R1        R2        R3        A1        A2
           R1           0.55202
           R2           0.00000   0.55202
           R3           0.00000   0.00000   0.55202
           A1           0.00000   0.00000   0.00000   0.16000
           A2           0.00000   0.00000   0.00000   0.00000   0.16000
           A3           0.00000   0.00000   0.00000   0.00000   0.00000
           D1           0.00000   0.00000   0.00000   0.00000   0.00000
                          A3        D1
           A3           0.16000
           D1           0.00000   0.01541
 ITU=  0
     Eigenvalues ---    0.03906   0.16000   0.16000   0.55202   0.55202
     Eigenvalues ---    0.55202
 RFO step:  Lambda= 0.00000000D+00 EMin= 3.90627000D-02
 Linear search not attempted -- first point.
 Iteration  1 RMS(Cart)=  0.00006916 RMS(Int)=  0.00000001
 Iteration  2 RMS(Cart)=  0.00000000 RMS(Int)=  0.00000000
 ClnCor:  largest displacement from symmetrization is 3.55D-06 for atom     4.
 Variable       Old X    -DE/DX   Delta X   Delta X   Delta X     New X
                                 (Linear)    (Quad)   (Total)
    R1        1.81653   0.00000   0.00000   0.00000   0.00000   1.81654
    R2        1.81653   0.00000   0.00000   0.00000   0.00000   1.81654
    R3        1.81653   0.00000   0.00000   0.00000   0.00000   1.81654
    A1        2.00256  -0.00001   0.00000  -0.00003  -0.00003   2.00253
    A2        2.00232   0.00003   0.00000   0.00018   0.00018   2.00250
    A3        2.00256  -0.00001   0.00000  -0.00002  -0.00003   2.00253
    D1       -2.37375  -0.00001   0.00000  -0.00014  -0.00014  -2.37389
         Item               Value     Threshold  Converged?
 Maximum Force            0.000025     0.000450     YES
 RMS     Force            0.000011     0.000300     YES
 Maximum Displacement     0.000107     0.001800     YES
 RMS     Displacement     0.000069     0.001200     YES
 Predicted change in Energy=-2.918107D-09
 Optimization completed.
    -- Stationary point found.
                           ----------------------------
                           !   Optimized Parameters   !
                           ! (Angstroms and Degrees)  !
 --------------------------                            --------------------------
 ! Name  Definition              Value          Derivative Info.                !
 --------------------------------------------------------------------------------
 ! R1    R(1,2)                  0.9613         -DE/DX =    0.0                 !
 ! R2    R(1,3)                  0.9613         -DE/DX =    0.0                 !
 ! R3    R(1,4)                  0.9613         -DE/DX =    0.0                 !
 ! A1    A(2,1,3)              114.738          -DE/DX =    0.0                 !
 ! A2    A(2,1,4)              114.7244         -DE/DX =    0.0                 !
 ! A3    A(3,1,4)              114.738          -DE/DX =    0.0                 !
 ! D1    D(2,1,4,3)           -136.006          -DE/DX =    0.0                 !
 --------------------------------------------------------------------------------
 GradGradGradGradGradGradGradGradGradGradGradGradGradGradGradGradGradGrad

                          Input orientation:                          
 ---------------------------------------------------------------------
 Center     Atomic      Atomic             Coordinates (Angstroms)
 Number     Number       Type             X           Y           Z
 ---------------------------------------------------------------------
      1          8           0        0.000000    0.000000    0.000000
      2          1           0        0.000000    0.000000    0.961268
      3          1           0        0.873053    0.000000   -0.402261
      4          1           0       -0.628154   -0.606474   -0.402055
 ---------------------------------------------------------------------
                    Distance matrix (angstroms):
                    1          2          3          4
     1  O    0.000000
     2  H    0.961268   0.000000
     3  H    0.961268   1.619084   0.000000
     4  H    0.961268   1.618962   1.619084   0.000000
 Stoichiometry    H3O(1+)
 Framework group  CS[SG(HO),X(H2)]
 Deg. of freedom     4
 Full point group                 CS      NOp   2
 Largest Abelian subgroup         CS      NOp   2
 Largest concise Abelian subgroup CS      NOp   2
                         Standard orientation:                         
 ---------------------------------------------------------------------
 Center     Atomic      Atomic             Coordinates (Angstroms)
 Number     Number       Type             X           Y           Z
 ---------------------------------------------------------------------
      1          8           0        0.000000    0.061147    0.000000
      2          1           0       -0.467401   -0.163158    0.809481
      3          1           0        0.934802   -0.162863    0.000000
      4          1           0       -0.467401   -0.163158   -0.809481
 ---------------------------------------------------------------------
 Rotational constants (GHZ):    348.8746225    348.8103634    191.3000175
 B after Tr=     0.000000    0.000000    0.000000
         Rot=    1.000000    0.000000    0.000000    0.000000 Ang=   0.00 deg.
 Final structure in terms of initial Z-matrix:
 O
 H,1,ho2
 H,1,ho3,2,hoh3
 H,1,ho4,3,hoh4,2,dih4,0
      Variables:
 ho2=0.961268
 ho3=0.961268
 hoh3=114.738
 ho4=0.961268
 hoh4=114.738
 dih4=-136.
 1\1\GINC-NISER-THINKCENTRE-M93P\FOpt\RHF\6-31G(d,p)\H3O1(1+)\STUDENT\0
 1-Mar-2021\0\\#hf/6-31g** opt\\xx\\1,1\O,0.,0.,0.\H,0.,0.,0.961268\H,0
 .873053241,0.,-0.4022613656\H,-0.6281542231,-0.6064737417,-0.402054772
 9\\Version=EM64L-G09RevC.01\State=1-A'\HF=-76.3103248\RMSD=3.127e-09\R
 MSF=1.096e-05\Dipole=0.1950647,-0.4829887,0.1249808\Quadrupole=0.58389
 86,-1.3952836,0.811385,0.9555907,-0.247436,0.6116744\PG=CS [SG(H1O1),X
 (H2)]\\@


 KNOWLEDGE IS OF TWO KINDS:  WE KNOW A SUBJECT OURSELVES OR WE KNOW 
 WHERE WE CAN FIND INFORMATION UPON IT.

                                    -- SAMUEL JOHNSON
 Job cpu time:  0 days  0 hours  0 minutes  0.8 seconds.
 File lengths (MBytes):  RWF=      5 Int=      0 D2E=      0 Chk=      1 Scr=      1
 Normal termination of Gaussian 09 at Mon Mar  1 14:59:15 2021.
