 Entering Gaussian System, Link 0=g09
 Input=test2.com
 Output=test2.log
 Initial command:
 /home/student/g09/l1.exe /home/student/singh/Gau-15199.inp -scrdir=/home/student/singh/
 Entering Link 1 = /home/student/g09/l1.exe PID=     15201.
  
 Copyright (c) 1988,1990,1992,1993,1995,1998,2003,2009,2011,
            Gaussian, Inc.  All Rights Reserved.
  
 This is part of the Gaussian(R) 09 program.  It is based on
 the Gaussian(R) 03 system (copyright 2003, Gaussian, Inc.),
 the Gaussian(R) 98 system (copyright 1998, Gaussian, Inc.),
 the Gaussian(R) 94 system (copyright 1995, Gaussian, Inc.),
 the Gaussian 92(TM) system (copyright 1992, Gaussian, Inc.),
 the Gaussian 90(TM) system (copyright 1990, Gaussian, Inc.),
 the Gaussian 88(TM) system (copyright 1988, Gaussian, Inc.),
 the Gaussian 86(TM) system (copyright 1986, Carnegie Mellon
 University), and the Gaussian 82(TM) system (copyright 1983,
 Carnegie Mellon University). Gaussian is a federally registered
 trademark of Gaussian, Inc.
  
 This software contains proprietary and confidential information,
 including trade secrets, belonging to Gaussian, Inc.
  
 This software is provided under written license and may be
 used, copied, transmitted, or stored only in accord with that
 written license.
  
 The following legend is applicable only to US Government
 contracts under FAR:
  
                    RESTRICTED RIGHTS LEGEND
  
 Use, reproduction and disclosure by the US Government is
 subject to restrictions as set forth in subparagraphs (a)
 and (c) of the Commercial Computer Software - Restricted
 Rights clause in FAR 52.227-19.
  
 Gaussian, Inc.
 340 Quinnipiac St., Bldg. 40, Wallingford CT 06492
  
  
 ---------------------------------------------------------------
 Warning -- This program may not be used in any manner that
 competes with the business of Gaussian, Inc. or will provide
 assistance to any competitor of Gaussian, Inc.  The licensee
 of this program is prohibited from giving any competitor of
 Gaussian, Inc. access to this program.  By using this program,
 the user acknowledges that Gaussian, Inc. is engaged in the
 business of creating and licensing software in the field of
 computational chemistry and represents and warrants to the
 licensee that it is not a competitor of Gaussian, Inc. and that
 it will not use this program in any manner prohibited above.
 ---------------------------------------------------------------
  

 Cite this work as:
 Gaussian 09, Revision C.01,
 M. J. Frisch, G. W. Trucks, H. B. Schlegel, G. E. Scuseria, 
 M. A. Robb, J. R. Cheeseman, G. Scalmani, V. Barone, B. Mennucci, 
 G. A. Petersson, H. Nakatsuji, M. Caricato, X. Li, H. P. Hratchian, 
 A. F. Izmaylov, J. Bloino, G. Zheng, J. L. Sonnenberg, M. Hada, 
 M. Ehara, K. Toyota, R. Fukuda, J. Hasegawa, M. Ishida, T. Nakajima, 
 Y. Honda, O. Kitao, H. Nakai, T. Vreven, J. A. Montgomery, Jr., 
 J. E. Peralta, F. Ogliaro, M. Bearpark, J. J. Heyd, E. Brothers, 
 K. N. Kudin, V. N. Staroverov, T. Keith, R. Kobayashi, J. Normand, 
 K. Raghavachari, A. Rendell, J. C. Burant, S. S. Iyengar, J. Tomasi, 
 M. Cossi, N. Rega, J. M. Millam, M. Klene, J. E. Knox, J. B. Cross, 
 V. Bakken, C. Adamo, J. Jaramillo, R. Gomperts, R. E. Stratmann, 
 O. Yazyev, A. J. Austin, R. Cammi, C. Pomelli, J. W. Ochterski, 
 R. L. Martin, K. Morokuma, V. G. Zakrzewski, G. A. Voth, 
 P. Salvador, J. J. Dannenberg, S. Dapprich, A. D. Daniels, 
 O. Farkas, J. B. Foresman, J. V. Ortiz, J. Cioslowski, 
 and D. J. Fox, Gaussian, Inc., Wallingford CT, 2010.
 
 ******************************************
 Gaussian 09:  EM64L-G09RevC.01 23-Sep-2011
                 1-Mar-2021 
 ******************************************
 --------------------------------
 #hf/6-31g** opt=(verytight) freq
 --------------------------------
 1/7=1,18=20,19=15,38=1/1,3;
 2/9=110,12=2,17=6,18=5,40=1/2;
 3/5=1,6=6,7=101,11=9,16=1,25=1,30=1,71=1/1,2,3;
 4//1;
 5/5=2,38=5/2;
 6/7=2,8=2,9=2,10=2,28=1/1;
 7//1,2,3,16;
 1/7=1,18=20,19=15/3(2);
 2/9=110/2;
 99//99;
 2/9=110/2;
 3/5=1,6=6,7=101,11=9,16=1,25=1,30=1,71=1/1,2,3;
 4/5=5,16=3/1;
 5/5=2,38=5/2;
 7//1,2,3,16;
 1/7=1,18=20,19=15/3(-5);
 2/9=110/2;
 6/7=2,8=2,9=2,10=2,19=2,28=1/1;
 99/9=1/99;
 --
 xx
 --
 Charge =  1 Multiplicity = 1
 Symbolic Z-Matrix:
 o
 h                    1    ho2
 h                    1    ho3      2    hoh3
 h                    1    ho4      2    hoh4     3    dih4     0
       Variables:
  ho2                   1.089                    
  ho3                   1.089                    
  hoh3                109.471                    
  ho4                   1.089                    
  hoh4                109.471                    
  dih4                120.                       
 
     2 tetrahedral angles replaced.

 GradGradGradGradGradGradGradGradGradGradGradGradGradGradGradGradGradGrad
 Berny optimization.
 Initialization pass.
                           ----------------------------
                           !    Initial Parameters    !
                           ! (Angstroms and Degrees)  !
 --------------------------                            --------------------------
 ! Name  Definition              Value          Derivative Info.                !
 --------------------------------------------------------------------------------
 ! R1    R(1,2)                  1.089          estimate D2E/DX2                !
 ! R2    R(1,3)                  1.089          estimate D2E/DX2                !
 ! R3    R(1,4)                  1.089          estimate D2E/DX2                !
 ! A1    A(2,1,3)              109.4712         estimate D2E/DX2                !
 ! A2    A(2,1,4)              109.4712         estimate D2E/DX2                !
 ! A3    A(3,1,4)              109.4712         estimate D2E/DX2                !
 ! D1    D(2,1,4,3)           -120.0            estimate D2E/DX2                !
 --------------------------------------------------------------------------------
 Trust Radius=3.00D-01 FncErr=1.00D-07 GrdErr=1.00D-07
 Number of steps in this run=     20 maximum allowed number of steps=    100.
 GradGradGradGradGradGradGradGradGradGradGradGradGradGradGradGradGradGrad

                          Input orientation:                          
 ---------------------------------------------------------------------
 Center     Atomic      Atomic             Coordinates (Angstroms)
 Number     Number       Type             X           Y           Z
 ---------------------------------------------------------------------
      1          8           0        0.000000    0.000000    0.000000
      2          1           0        0.000000    0.000000    1.089000
      3          1           0        1.026719    0.000000   -0.363000
      4          1           0       -0.513360   -0.889165   -0.363000
 ---------------------------------------------------------------------
                    Distance matrix (angstroms):
                    1          2          3          4
     1  O    0.000000
     2  H    1.089000   0.000000
     3  H    1.089000   1.778330   0.000000
     4  H    1.089000   1.778330   1.778330   0.000000
 Stoichiometry    H3O(1+)
 Framework group  C3V[C3(O),3SGV(H)]
 Deg. of freedom     2
 Full point group                 C3V     NOp   6
 Largest Abelian subgroup         CS      NOp   2
 Largest concise Abelian subgroup CS      NOp   2
                         Standard orientation:                         
 ---------------------------------------------------------------------
 Center     Atomic      Atomic             Coordinates (Angstroms)
 Number     Number       Type             X           Y           Z
 ---------------------------------------------------------------------
      1          8           0        0.000000    0.000000    0.099000
      2          1           0        0.000000    1.026719   -0.264000
      3          1           0       -0.889165   -0.513360   -0.264000
      4          1           0        0.889165   -0.513360   -0.264000
 ---------------------------------------------------------------------
 Rotational constants (GHZ):    262.0356300    262.0356300    158.5650837
 Standard basis: 6-31G(d,p) (6D, 7F)
 There are    20 symmetry adapted basis functions of A'  symmetry.
 There are    10 symmetry adapted basis functions of A"  symmetry.
 Integral buffers will be    131072 words long.
 Raffenetti 1 integral format.
 Two-electron integral symmetry is turned on.
    30 basis functions,    49 primitive gaussians,    30 cartesian basis functions
     5 alpha electrons        5 beta electrons
       nuclear repulsion energy        12.5550170933 Hartrees.
 NAtoms=    4 NActive=    4 NUniq=    2 SFac= 4.00D+00 NAtFMM=   60 NAOKFM=F Big=F
 One-electron integrals computed using PRISM.
 NBasis=    30 RedAO= T  NBF=    20    10
 NBsUse=    30 1.00D-06 NBFU=    20    10
 Harris functional with IExCor=  205 diagonalized for initial guess.
 ExpMin= 1.61D-01 ExpMax= 5.48D+03 ExpMxC= 8.25D+02 IAcc=1 IRadAn=         1 AccDes= 0.00D+00
 HarFok:  IExCor=  205 AccDes= 0.00D+00 IRadAn=         1 IDoV= 1
 ScaDFX=  1.000000  1.000000  1.000000  1.000000
 FoFCou: FMM=F IPFlag=           0 FMFlag=      100000 FMFlg1=           0
         NFxFlg=           0 DoJE=T BraDBF=F KetDBF=T FulRan=T
         Omega=  0.000000  0.000000  1.000000  0.000000  0.000000 ICntrl=     500 IOpCl=  0
         NMat0=    1 NMatS0=    1 NMatT0=    0 NMatD0=    1 NMtDS0=    0 NMtDT0=    0
         I1Cent=           4 NGrid=           0.
 Petite list used in FoFCou.
 Initial guess orbital symmetries:
       Occupied  (A1) (A1) (E) (E) (A1)
       Virtual   (A1) (E) (E) (E) (E) (A1) (A1) (E) (E) (A1) (E)
                 (E) (A1) (A2) (E) (E) (E) (E) (A1) (E) (E) (A1)
                 (E) (E) (A1)
 The electronic state of the initial guess is 1-A1.
 Requested convergence on RMS density matrix=1.00D-08 within 128 cycles.
 Requested convergence on MAX density matrix=1.00D-06.
 Requested convergence on             energy=1.00D-06.
 No special actions if energy rises.
 Keep R1 ints in memory in canonical form, NReq=949711.
 SCF Done:  E(RHF) =  -76.2737394019     A.U. after    9 cycles
             Convg  =    0.7539D-08             -V/T =  2.0099

 **********************************************************************

            Population analysis using the SCF density.

 **********************************************************************

 Orbital symmetries:
       Occupied  (A1) (A1) (E) (E) (A1)
       Virtual   (A1) (E) (E) (E) (E) (A1) (A1) (E) (E) (A1) (E)
                 (E) (A1) (A2) (E) (E) (E) (E) (A1) (E) (E) (A1)
                 (E) (E) (A1)
 The electronic state is 1-A1.
 Alpha  occ. eigenvalues --  -21.00944  -1.72495  -1.05084  -1.05084  -0.92159
 Alpha virt. eigenvalues --   -0.14391  -0.03791  -0.03791   0.62142   0.62142
 Alpha virt. eigenvalues --    0.65426   0.78385   0.91080   0.91080   1.10254
 Alpha virt. eigenvalues --    1.34964   1.34964   1.80147   1.95806   2.09069
 Alpha virt. eigenvalues --    2.09069   2.25854   2.25854   2.57322   2.78455
 Alpha virt. eigenvalues --    2.78455   3.01747   3.39990   3.39990   3.85981
          Condensed to atoms (all electrons):
              1          2          3          4
     1  O    7.783068   0.264321   0.264321   0.264321
     2  H    0.264321   0.226163  -0.007914  -0.007914
     3  H    0.264321  -0.007914   0.226163  -0.007914
     4  H    0.264321  -0.007914  -0.007914   0.226163
 Mulliken atomic charges:
              1
     1  O   -0.576032
     2  H    0.525344
     3  H    0.525344
     4  H    0.525344
 Sum of Mulliken atomic charges =   1.00000
 Mulliken charges with hydrogens summed into heavy atoms:
              1
     1  O    1.000000
 Sum of Mulliken charges with hydrogens summed into heavy atoms =   1.00000
 Electronic spatial extent (au):  <R**2>=             19.8054
 Charge=              1.0000 electrons
 Dipole moment (field-independent basis, Debye):
    X=              0.0000    Y=              0.0000    Z=             -2.1826  Tot=              2.1826
 Quadrupole moment (field-independent basis, Debye-Ang):
   XX=             -1.9353   YY=             -1.9353   ZZ=             -6.1975
   XY=              0.0000   XZ=              0.0000   YZ=              0.0000
 Traceless Quadrupole moment (field-independent basis, Debye-Ang):
   XX=              1.4208   YY=              1.4208   ZZ=             -2.8415
   XY=              0.0000   XZ=              0.0000   YZ=              0.0000
 Octapole moment (field-independent basis, Debye-Ang**2):
  XXX=              0.0000  YYY=              2.4321  ZZZ=             -1.0577  XYY=              0.0000
  XXY=             -2.4321  XXZ=             -1.5266  XZZ=              0.0000  YZZ=              0.0000
  YYZ=             -1.5266  XYZ=              0.0000
 Hexadecapole moment (field-independent basis, Debye-Ang**3):
 XXXX=             -2.6944 YYYY=             -2.6944 ZZZZ=             -5.2391 XXXY=              0.0000
 XXXZ=              0.0000 YYYX=              0.0000 YYYZ=             -0.7346 ZZZX=              0.0000
 ZZZY=              0.0000 XXYY=             -0.8981 XXZZ=             -1.6366 YYZZ=             -1.6366
 XXYZ=              0.7346 YYXZ=              0.0000 ZZXY=              0.0000
 N-N= 1.255501709328D+01 E-N=-2.016647048779D+02  KE= 7.552251919603D+01
 Symmetry A'   KE= 7.186950447343D+01
 Symmetry A"   KE= 3.653014722601D+00
 Calling FoFJK, ICntrl=      2127 FMM=F ISym2X=1 I1Cent= 0 IOpClX= 0 NMat=1 NMatS=1 NMatT=0.
 ***** Axes restored to original set *****
 -------------------------------------------------------------------
 Center     Atomic                   Forces (Hartrees/Bohr)
 Number     Number              X              Y              Z
 -------------------------------------------------------------------
      1        8           0.042846179   -0.074211758    0.030296823
      2        1          -0.000730467    0.001265206   -0.086758324
      3        1          -0.082040021    0.001265206    0.028230750
      4        1           0.039924310    0.071681346    0.028230750
 -------------------------------------------------------------------
 Cartesian Forces:  Max     0.086758324 RMS     0.050702154

 GradGradGradGradGradGradGradGradGradGradGradGradGradGradGradGradGradGrad
 Berny optimization.
 Internal  Forces:  Max     0.086758324 RMS     0.056809770
 Search for a local minimum.
 Step number   1 out of a maximum of   20
 All quantities printed in internal units (Hartrees-Bohrs-Radians)
 Mixed Optimization -- RFO/linear search
 Second derivative matrix not updated -- first step.
 The second derivative matrix:
                          R1        R2        R3        A1        A2
           R1           0.34928
           R2           0.00000   0.34928
           R3           0.00000   0.00000   0.34928
           A1           0.00000   0.00000   0.00000   0.16000
           A2           0.00000   0.00000   0.00000   0.00000   0.16000
           A3           0.00000   0.00000   0.00000   0.00000   0.00000
           D1           0.00000   0.00000   0.00000   0.00000   0.00000
                          A3        D1
           A3           0.16000
           D1           0.00000   0.00230
 ITU=  0
     Eigenvalues ---    0.05082   0.16000   0.16000   0.34928   0.34928
     Eigenvalues ---    0.34928
 RFO step:  Lambda=-5.58241371D-02 EMin= 5.08230769D-02
 Linear search not attempted -- first point.
 Maximum step size (   0.300) exceeded in Quadratic search.
    -- Step size scaled by   0.808
 Iteration  1 RMS(Cart)=  0.10609157 RMS(Int)=  0.00077632
 Iteration  2 RMS(Cart)=  0.00052654 RMS(Int)=  0.00006050
 Iteration  3 RMS(Cart)=  0.00000033 RMS(Int)=  0.00006050
 ClnCor:  largest displacement from symmetrization is 1.41D-03 for atom     4.
 Variable       Old X    -DE/DX   Delta X   Delta X   Delta X     New X
                                 (Linear)    (Quad)   (Total)
    R1        2.05791  -0.08676   0.00000  -0.17304  -0.17344   1.88447
    R2        2.05791  -0.08676   0.00000  -0.17304  -0.17344   1.88447
    R3        2.05791  -0.08676   0.00000  -0.17304  -0.17344   1.88447
    A1        1.91063   0.00023   0.00000   0.00559   0.00728   1.91791
    A2        1.91063   0.00162   0.00000   0.00842   0.00728   1.91791
    A3        1.91063   0.00162   0.00000   0.00842   0.00728   1.91791
    D1       -2.09440  -0.00227   0.00000  -0.01717  -0.01809  -2.11248
         Item               Value     Threshold  Converged?
 Maximum Force            0.086758     0.000002     NO 
 RMS     Force            0.056810     0.000001     NO 
 Maximum Displacement     0.155747     0.000006     NO 
 RMS     Displacement     0.106616     0.000004     NO 
 Predicted change in Energy=-2.943459D-02
 GradGradGradGradGradGradGradGradGradGradGradGradGradGradGradGradGradGrad

                          Input orientation:                          
 ---------------------------------------------------------------------
 Center     Atomic      Atomic             Coordinates (Angstroms)
 Number     Number       Type             X           Y           Z
 ---------------------------------------------------------------------
      1          8           0        0.013277   -0.022996    0.009388
      2          1           0        0.009619   -0.016660    1.006582
      3          1           0        0.952221   -0.016660   -0.326459
      4          1           0       -0.461682   -0.832978   -0.326459
 ---------------------------------------------------------------------
                    Distance matrix (angstroms):
                    1          2          3          4
     1  O    0.000000
     2  H    0.997221   0.000000
     3  H    0.997221   1.632635   0.000000
     4  H    0.997221   1.632635   1.632635   0.000000
 Stoichiometry    H3O(1+)
 Framework group  C3V[C3(O),3SGV(H)]
 Deg. of freedom     2
 Full point group                 C3V     NOp   6
 Largest Abelian subgroup         CS      NOp   2
 Largest concise Abelian subgroup CS      NOp   2
                         Standard orientation:                         
 ---------------------------------------------------------------------
 Center     Atomic      Atomic             Coordinates (Angstroms)
 Number     Number       Type             X           Y           Z
 ---------------------------------------------------------------------
      1          8           0        0.000000    0.000000    0.088773
      2          1           0        0.000000    0.942602   -0.236727
      3          1           0       -0.816317   -0.471301   -0.236727
      4          1           0        0.816317   -0.471301   -0.236727
 ---------------------------------------------------------------------
 Rotational constants (GHZ):    313.3960681    313.3960681    188.1282290
 Standard basis: 6-31G(d,p) (6D, 7F)
 There are    20 symmetry adapted basis functions of A'  symmetry.
 There are    10 symmetry adapted basis functions of A"  symmetry.
 Integral buffers will be    131072 words long.
 Raffenetti 1 integral format.
 Two-electron integral symmetry is turned on.
    30 basis functions,    49 primitive gaussians,    30 cartesian basis functions
     5 alpha electrons        5 beta electrons
       nuclear repulsion energy        13.7080235745 Hartrees.
 NAtoms=    4 NActive=    4 NUniq=    2 SFac= 4.00D+00 NAtFMM=   60 NAOKFM=F Big=F
 One-electron integrals computed using PRISM.
 NBasis=    30 RedAO= T  NBF=    20    10
 NBsUse=    30 1.00D-06 NBFU=    20    10
 Initial guess read from the read-write file.
 B after Tr=     0.000000    0.000000    0.000000
         Rot=    1.000000    0.000000    0.000000    0.000000 Ang=   0.00 deg.
 Initial guess orbital symmetries:
       Occupied  (A1) (A1) (E) (E) (A1)
       Virtual   (A1) (E) (E) (E) (E) (A1) (A1) (E) (E) (A1) (E)
                 (E) (A1) (A2) (E) (E) (E) (E) (A1) (E) (E) (A1)
                 (E) (E) (A1)
 Harris functional with IExCor=  205 diagonalized for initial guess.
 ExpMin= 1.61D-01 ExpMax= 5.48D+03 ExpMxC= 8.25D+02 IAcc=1 IRadAn=         1 AccDes= 0.00D+00
 HarFok:  IExCor=  205 AccDes= 0.00D+00 IRadAn=         1 IDoV= 1
 ScaDFX=  1.000000  1.000000  1.000000  1.000000
 FoFCou: FMM=F IPFlag=           0 FMFlag=      100000 FMFlg1=           0
         NFxFlg=           0 DoJE=T BraDBF=F KetDBF=T FulRan=T
         Omega=  0.000000  0.000000  1.000000  0.000000  0.000000 ICntrl=     500 IOpCl=  0
         NMat0=    1 NMatS0=    1 NMatT0=    0 NMatD0=    1 NMtDS0=    0 NMtDT0=    0
         I1Cent=           4 NGrid=           0.
 Petite list used in FoFCou.
 Requested convergence on RMS density matrix=1.00D-08 within 128 cycles.
 Requested convergence on MAX density matrix=1.00D-06.
 Requested convergence on             energy=1.00D-06.
 No special actions if energy rises.
 Keep R1 ints in memory in canonical form, NReq=949711.
 SCF Done:  E(RHF) =  -76.3060536934     A.U. after   10 cycles
             Convg  =    0.2485D-08             -V/T =  2.0052
 Calling FoFJK, ICntrl=      2127 FMM=F ISym2X=1 I1Cent= 0 IOpClX= 0 NMat=1 NMatS=1 NMatT=0.
 ***** Axes restored to original set *****
 -------------------------------------------------------------------
 Center     Atomic                   Forces (Hartrees/Bohr)
 Number     Number              X              Y              Z
 -------------------------------------------------------------------
      1        8           0.019742444   -0.034194916    0.013960016
      2        1          -0.001944919    0.003368698   -0.030877925
      3        1          -0.029760293    0.003368698    0.008458954
      4        1           0.011962768    0.027457519    0.008458954
 -------------------------------------------------------------------
 Cartesian Forces:  Max     0.034194916 RMS     0.019705476

 GradGradGradGradGradGradGradGradGradGradGradGradGradGradGradGradGradGrad
 Berny optimization.
 Using GEDIIS/GDIIS optimizer.
 Internal  Forces:  Max     0.030848555 RMS     0.020437117
 Search for a local minimum.
 Step number   2 out of a maximum of   20
 All quantities printed in internal units (Hartrees-Bohrs-Radians)
 Mixed Optimization -- RFO/linear search
 Update second derivatives using D2CorX and points    1    2
 DE= -3.23D-02 DEPred=-2.94D-02 R= 1.10D+00
 SS=  1.41D+00  RLast= 3.01D-01 DXNew= 5.0454D-01 9.0363D-01
 Trust test= 1.10D+00 RLast= 3.01D-01 DXMaxT set to 5.05D-01
 The second derivative matrix:
                          R1        R2        R3        A1        A2
           R1           0.34079
           R2          -0.00849   0.34079
           R3          -0.00849  -0.00849   0.34079
           A1           0.00283   0.00283   0.00283   0.15996
           A2           0.00702   0.00702   0.00702  -0.00002   0.16017
           A3           0.00702   0.00702   0.00702  -0.00002   0.00017
           D1          -0.00712  -0.00712  -0.00712  -0.00004  -0.00031
                          A3        D1
           A3           0.16017
           D1          -0.00031   0.00276
 ITU=  1  0
 Use linear search instead of GDIIS.
     Eigenvalues ---    0.04867   0.15950   0.16000   0.32572   0.34928
     Eigenvalues ---    0.34928
 RFO step:  Lambda=-1.24151457D-03 EMin= 4.86711168D-02
 Quartic linear search produced a step of  0.37334.
 Iteration  1 RMS(Cart)=  0.04299425 RMS(Int)=  0.00450315
 Iteration  2 RMS(Cart)=  0.00317099 RMS(Int)=  0.00296659
 Iteration  3 RMS(Cart)=  0.00000841 RMS(Int)=  0.00296656
 Iteration  4 RMS(Cart)=  0.00000006 RMS(Int)=  0.00296656
 ClnCor:  largest displacement from symmetrization is 3.39D-03 for atom     4.
 Variable       Old X    -DE/DX   Delta X   Delta X   Delta X     New X
                                 (Linear)    (Quad)   (Total)
    R1        1.88447  -0.03085  -0.06475  -0.00425  -0.07001   1.81447
    R2        1.88447  -0.03085  -0.06475  -0.00425  -0.07001   1.81447
    R3        1.88447  -0.03085  -0.06475  -0.00425  -0.07001   1.81447
    A1        1.91791   0.00054   0.00272   0.04597   0.04827   1.96618
    A2        1.91791   0.00410   0.00272   0.05155   0.04827   1.96618
    A3        1.91791   0.00410   0.00272   0.05155   0.04827   1.96618
    D1       -2.11248  -0.00591  -0.00675  -0.12302  -0.13529  -2.24778
         Item               Value     Threshold  Converged?
 Maximum Force            0.030849     0.000002     NO 
 RMS     Force            0.020437     0.000001     NO 
 Maximum Displacement     0.069372     0.000006     NO 
 RMS     Displacement     0.044457     0.000004     NO 
 Predicted change in Energy=-5.103870D-03
 GradGradGradGradGradGradGradGradGradGradGradGradGradGradGradGradGradGrad

                          Input orientation:                          
 ---------------------------------------------------------------------
 Center     Atomic      Atomic             Coordinates (Angstroms)
 Number     Number       Type             X           Y           Z
 ---------------------------------------------------------------------
      1          8           0        0.034472   -0.059707    0.024375
      2          1           0        0.005930   -0.010271    0.982851
      3          1           0        0.928618   -0.010271   -0.322026
      4          1           0       -0.455414   -0.809342   -0.322026
 ---------------------------------------------------------------------
                    Distance matrix (angstroms):
                    1          2          3          4
     1  O    0.000000
     2  H    0.960175   0.000000
     3  H    0.960175   1.598142   0.000000
     4  H    0.960175   1.598142   1.598142   0.000000
 Stoichiometry    H3O(1+)
 Framework group  C3V[C3(O),3SGV(H)]
 Deg. of freedom     2
 Full point group                 C3V     NOp   6
 Largest Abelian subgroup         CS      NOp   2
 Largest concise Abelian subgroup CS      NOp   2
                         Standard orientation:                         
 ---------------------------------------------------------------------
 Center     Atomic      Atomic             Coordinates (Angstroms)
 Number     Number       Type             X           Y           Z
 ---------------------------------------------------------------------
      1          8           0        0.000000    0.000000    0.072456
      2          1           0        0.000000    0.922688   -0.193217
      3          1           0       -0.799071   -0.461344   -0.193217
      4          1           0        0.799071   -0.461344   -0.193217
 ---------------------------------------------------------------------
 Rotational constants (GHZ):    344.6156828    344.6156828    196.3365857
 Standard basis: 6-31G(d,p) (6D, 7F)
 There are    20 symmetry adapted basis functions of A'  symmetry.
 There are    10 symmetry adapted basis functions of A"  symmetry.
 Integral buffers will be    131072 words long.
 Raffenetti 1 integral format.
 Two-electron integral symmetry is turned on.
    30 basis functions,    49 primitive gaussians,    30 cartesian basis functions
     5 alpha electrons        5 beta electrons
       nuclear repulsion energy        14.2203846088 Hartrees.
 NAtoms=    4 NActive=    4 NUniq=    2 SFac= 4.00D+00 NAtFMM=   60 NAOKFM=F Big=F
 One-electron integrals computed using PRISM.
 NBasis=    30 RedAO= T  NBF=    20    10
 NBsUse=    30 1.00D-06 NBFU=    20    10
 Initial guess read from the read-write file.
 B after Tr=     0.000000    0.000000    0.000000
         Rot=    1.000000    0.000000    0.000000    0.000000 Ang=   0.00 deg.
 Initial guess orbital symmetries:
       Occupied  (A1) (A1) (E) (E) (A1)
       Virtual   (A1) (E) (E) (E) (E) (A1) (A1) (E) (E) (A1) (E)
                 (E) (A1) (A2) (E) (E) (E) (E) (A1) (E) (E) (A1)
                 (E) (E) (A1)
 Harris functional with IExCor=  205 diagonalized for initial guess.
 ExpMin= 1.61D-01 ExpMax= 5.48D+03 ExpMxC= 8.25D+02 IAcc=1 IRadAn=         1 AccDes= 0.00D+00
 HarFok:  IExCor=  205 AccDes= 0.00D+00 IRadAn=         1 IDoV= 1
 ScaDFX=  1.000000  1.000000  1.000000  1.000000
 FoFCou: FMM=F IPFlag=           0 FMFlag=      100000 FMFlg1=           0
         NFxFlg=           0 DoJE=T BraDBF=F KetDBF=T FulRan=T
         Omega=  0.000000  0.000000  1.000000  0.000000  0.000000 ICntrl=     500 IOpCl=  0
         NMat0=    1 NMatS0=    1 NMatT0=    0 NMatD0=    1 NMtDS0=    0 NMtDT0=    0
         I1Cent=           4 NGrid=           0.
 Petite list used in FoFCou.
 Requested convergence on RMS density matrix=1.00D-08 within 128 cycles.
 Requested convergence on MAX density matrix=1.00D-06.
 Requested convergence on             energy=1.00D-06.
 No special actions if energy rises.
 Keep R1 ints in memory in canonical form, NReq=949711.
 SCF Done:  E(RHF) =  -76.3100744993     A.U. after    9 cycles
             Convg  =    0.1720D-08             -V/T =  2.0028
 Calling FoFJK, ICntrl=      2127 FMM=F ISym2X=1 I1Cent= 0 IOpClX= 0 NMat=1 NMatS=1 NMatT=0.
 ***** Axes restored to original set *****
 -------------------------------------------------------------------
 Center     Atomic                   Forces (Hartrees/Bohr)
 Number     Number              X              Y              Z
 -------------------------------------------------------------------
      1        8           0.001909143   -0.003306733    0.001349968
      2        1          -0.001137866    0.001970842    0.002386837
      3        1           0.001871043    0.001970842   -0.001868403
      4        1          -0.002642321   -0.000634950   -0.001868403
 -------------------------------------------------------------------
 Cartesian Forces:  Max     0.003306733 RMS     0.002021336

 GradGradGradGradGradGradGradGradGradGradGradGradGradGradGradGradGradGrad
 Berny optimization.
 Using GEDIIS/GDIIS optimizer.
 Internal  Forces:  Max     0.003147040 RMS     0.002233518
 Search for a local minimum.
 Step number   3 out of a maximum of   20
 All quantities printed in internal units (Hartrees-Bohrs-Radians)
 Mixed Optimization -- RFO/linear search
 Update second derivatives using D2CorX and points    1    2    3
 DE= -4.02D-03 DEPred=-5.10D-03 R= 7.88D-01
 SS=  1.41D+00  RLast= 2.00D-01 DXNew= 8.4853D-01 5.9997D-01
 Trust test= 7.88D-01 RLast= 2.00D-01 DXMaxT set to 6.00D-01
 The second derivative matrix:
                          R1        R2        R3        A1        A2
           R1           0.40326
           R2           0.05398   0.40326
           R3           0.05398   0.05398   0.40326
           A1           0.03161   0.03161   0.03161   0.15454
           A2           0.02352   0.02352   0.02352  -0.00493   0.15608
           A3           0.02352   0.02352   0.02352  -0.00493  -0.00392
           D1           0.01015   0.01015   0.01015  -0.00075  -0.00147
                          A3        D1
           A3           0.15608
           D1          -0.00147   0.00337
 ITU=  1  1  0
 Use linear search instead of GDIIS.
     Eigenvalues ---    0.03615   0.16000   0.16000   0.34928   0.34928
     Eigenvalues ---    0.51238
 RFO step:  Lambda=-3.63437567D-04 EMin= 3.61529528D-02
 Quartic linear search produced a step of  0.00810.
 Iteration  1 RMS(Cart)=  0.02022591 RMS(Int)=  0.00112248
 Iteration  2 RMS(Cart)=  0.00050796 RMS(Int)=  0.00098728
 Iteration  3 RMS(Cart)=  0.00000019 RMS(Int)=  0.00098728
 ClnCor:  largest displacement from symmetrization is 5.49D-04 for atom     4.
 Variable       Old X    -DE/DX   Delta X   Delta X   Delta X     New X
                                 (Linear)    (Quad)   (Total)
    R1        1.81447   0.00252  -0.00057   0.00314   0.00240   1.81687
    R2        1.81447   0.00252  -0.00057   0.00314   0.00240   1.81687
    R3        1.81447   0.00252  -0.00057   0.00314   0.00240   1.81687
    A1        1.96618   0.00010   0.00039   0.02505   0.02455   1.99073
    A2        1.96618   0.00173   0.00039   0.02577   0.02455   1.99073
    A3        1.96618   0.00173   0.00039   0.02577   0.02455   1.99073
    D1       -2.24778  -0.00315  -0.00110  -0.07970  -0.08219  -2.32997
         Item               Value     Threshold  Converged?
 Maximum Force            0.003147     0.000002     NO 
 RMS     Force            0.002234     0.000001     NO 
 Maximum Displacement     0.031464     0.000006     NO 
 RMS     Displacement     0.019964     0.000004     NO 
 Predicted change in Energy=-2.006377D-04
 GradGradGradGradGradGradGradGradGradGradGradGradGradGradGradGradGradGrad

                          Input orientation:                          
 ---------------------------------------------------------------------
 Center     Atomic      Atomic             Coordinates (Angstroms)
 Number     Number       Type             X           Y           Z
 ---------------------------------------------------------------------
      1          8           0        0.044084   -0.076357    0.031172
      2          1           0        0.001282   -0.002221    0.988801
      3          1           0        0.932678   -0.002221   -0.328391
      4          1           0       -0.464415   -0.808833   -0.328391
 ---------------------------------------------------------------------
                    Distance matrix (angstroms):
                    1          2          3          4
     1  O    0.000000
     2  H    0.961447   0.000000
     3  H    0.961447   1.613224   0.000000
     4  H    0.961447   1.613224   1.613224   0.000000
 Stoichiometry    H3O(1+)
 Framework group  C3V[C3(O),3SGV(H)]
 Deg. of freedom     2
 Full point group                 C3V     NOp   6
 Largest Abelian subgroup         CS      NOp   2
 Largest concise Abelian subgroup CS      NOp   2
                         Standard orientation:                         
 ---------------------------------------------------------------------
 Center     Atomic      Atomic             Coordinates (Angstroms)
 Number     Number       Type             X           Y           Z
 ---------------------------------------------------------------------
      1          8           0        0.000000    0.000000    0.065046
      2          1           0        0.000000    0.931395   -0.173455
      3          1           0       -0.806612   -0.465698   -0.173455
      4          1           0        0.806612   -0.465698   -0.173455
 ---------------------------------------------------------------------
 Rotational constants (GHZ):    347.0841081    347.0841081    192.6826543
 Standard basis: 6-31G(d,p) (6D, 7F)
 There are    20 symmetry adapted basis functions of A'  symmetry.
 There are    10 symmetry adapted basis functions of A"  symmetry.
 Integral buffers will be    131072 words long.
 Raffenetti 1 integral format.
 Two-electron integral symmetry is turned on.
    30 basis functions,    49 primitive gaussians,    30 cartesian basis functions
     5 alpha electrons        5 beta electrons
       nuclear repulsion energy        14.1935945675 Hartrees.
 NAtoms=    4 NActive=    4 NUniq=    2 SFac= 4.00D+00 NAtFMM=   60 NAOKFM=F Big=F
 One-electron integrals computed using PRISM.
 NBasis=    30 RedAO= T  NBF=    20    10
 NBsUse=    30 1.00D-06 NBFU=    20    10
 Initial guess read from the read-write file.
 B after Tr=     0.000000    0.000000    0.000000
         Rot=    1.000000    0.000000    0.000000    0.000000 Ang=   0.00 deg.
 Initial guess orbital symmetries:
       Occupied  (A1) (A1) (E) (E) (A1)
       Virtual   (A1) (E) (E) (E) (E) (A1) (A1) (E) (E) (A1) (E)
                 (E) (A1) (A2) (E) (E) (E) (E) (A1) (E) (E) (A1)
                 (E) (E) (A1)
 Harris functional with IExCor=  205 diagonalized for initial guess.
 ExpMin= 1.61D-01 ExpMax= 5.48D+03 ExpMxC= 8.25D+02 IAcc=1 IRadAn=         1 AccDes= 0.00D+00
 HarFok:  IExCor=  205 AccDes= 0.00D+00 IRadAn=         1 IDoV= 1
 ScaDFX=  1.000000  1.000000  1.000000  1.000000
 FoFCou: FMM=F IPFlag=           0 FMFlag=      100000 FMFlg1=           0
         NFxFlg=           0 DoJE=T BraDBF=F KetDBF=T FulRan=T
         Omega=  0.000000  0.000000  1.000000  0.000000  0.000000 ICntrl=     500 IOpCl=  0
         NMat0=    1 NMatS0=    1 NMatT0=    0 NMatD0=    1 NMtDS0=    0 NMtDT0=    0
         I1Cent=           4 NGrid=           0.
 Petite list used in FoFCou.
 Requested convergence on RMS density matrix=1.00D-08 within 128 cycles.
 Requested convergence on MAX density matrix=1.00D-06.
 Requested convergence on             energy=1.00D-06.
 No special actions if energy rises.
 Keep R1 ints in memory in canonical form, NReq=949711.
 SCF Done:  E(RHF) =  -76.3103001381     A.U. after    8 cycles
             Convg  =    0.7527D-08             -V/T =  2.0030
 Calling FoFJK, ICntrl=      2127 FMM=F ISym2X=1 I1Cent= 0 IOpClX= 0 NMat=1 NMatS=1 NMatT=0.
 ***** Axes restored to original set *****
 -------------------------------------------------------------------
 Center     Atomic                   Forces (Hartrees/Bohr)
 Number     Number              X              Y              Z
 -------------------------------------------------------------------
      1        8           0.000747783   -0.001295199    0.000528763
      2        1          -0.000313739    0.000543412    0.000188490
      3        1           0.000073130    0.000543412   -0.000358626
      4        1          -0.000507174    0.000208374   -0.000358626
 -------------------------------------------------------------------
 Cartesian Forces:  Max     0.001295199 RMS     0.000563034

 GradGradGradGradGradGradGradGradGradGradGradGradGradGradGradGradGradGrad
 Berny optimization.
 Using GEDIIS/GDIIS optimizer.
 Internal  Forces:  Max     0.000923311 RMS     0.000450081
 Search for a local minimum.
 Step number   4 out of a maximum of   20
 All quantities printed in internal units (Hartrees-Bohrs-Radians)
 Mixed Optimization -- En-DIIS/RFO-DIIS
 Update second derivatives using D2CorX and points    1    2    3    4
 DE= -2.26D-04 DEPred=-2.01D-04 R= 1.12D+00
 SS=  1.41D+00  RLast= 9.26D-02 DXNew= 1.0090D+00 2.7789D-01
 Trust test= 1.12D+00 RLast= 9.26D-02 DXMaxT set to 6.00D-01
 The second derivative matrix:
                          R1        R2        R3        A1        A2
           R1           0.40604
           R2           0.05675   0.40604
           R3           0.05675   0.05675   0.40604
           A1           0.01666   0.01666   0.01666   0.11090
           A2           0.01405   0.01405   0.01405  -0.04999   0.11564
           A3           0.01405   0.01405   0.01405  -0.04999  -0.04436
           D1           0.00089   0.00089   0.00089   0.00362  -0.00811
                          A3        D1
           A3           0.11564
           D1          -0.00811   0.02337
 ITU=  1  1  1  0
 Use linear search instead of GDIIS.
     Eigenvalues ---    0.02647   0.16000   0.16117   0.34928   0.34928
     Eigenvalues ---    0.52023
 RFO step:  Lambda=-4.43116867D-06 EMin= 2.64716140D-02
 Quartic linear search produced a step of  0.46591.
 Iteration  1 RMS(Cart)=  0.00961482 RMS(Int)=  0.00070417
 Iteration  2 RMS(Cart)=  0.00013659 RMS(Int)=  0.00069014
 Iteration  3 RMS(Cart)=  0.00000000 RMS(Int)=  0.00069014
 ClnCor:  largest displacement from symmetrization is 3.92D-04 for atom     4.
 Variable       Old X    -DE/DX   Delta X   Delta X   Delta X     New X
                                 (Linear)    (Quad)   (Total)
    R1        1.81687   0.00024   0.00112  -0.00165  -0.00041   1.81647
    R2        1.81687   0.00024   0.00112  -0.00165  -0.00041   1.81647
    R3        1.81687   0.00024   0.00112  -0.00165  -0.00041   1.81647
    A1        1.99073   0.00001   0.01144   0.00189   0.01158   2.00230
    A2        1.99073   0.00044   0.01144   0.00066   0.01158   2.00230
    A3        1.99073   0.00044   0.01144   0.00066   0.01158   2.00230
    D1       -2.32997  -0.00092  -0.03829  -0.00423  -0.04308  -2.37305
         Item               Value     Threshold  Converged?
 Maximum Force            0.000923     0.000002     NO 
 RMS     Force            0.000450     0.000001     NO 
 Maximum Displacement     0.016288     0.000006     NO 
 RMS     Displacement     0.009608     0.000004     NO 
 Predicted change in Energy=-1.863871D-05
 GradGradGradGradGradGradGradGradGradGradGradGradGradGradGradGradGradGrad

                          Input orientation:                          
 ---------------------------------------------------------------------
 Center     Atomic      Atomic             Coordinates (Angstroms)
 Number     Number       Type             X           Y           Z
 ---------------------------------------------------------------------
      1          8           0        0.049061   -0.084976    0.034691
      2          1           0       -0.000927    0.001606    0.990710
      3          1           0        0.933741    0.001606   -0.331111
      4          1           0       -0.468261   -0.807841   -0.331111
 ---------------------------------------------------------------------
                    Distance matrix (angstroms):
                    1          2          3          4
     1  O    0.000000
     2  H    0.961232   0.000000
     3  H    0.961232   1.618893   0.000000
     4  H    0.961232   1.618893   1.618893   0.000000
 Stoichiometry    H3O(1+)
 Framework group  C3V[C3(O),3SGV(H)]
 Deg. of freedom     2
 Full point group                 C3V     NOp   6
 Largest Abelian subgroup         CS      NOp   2
 Largest concise Abelian subgroup CS      NOp   2
                         Standard orientation:                         
 ---------------------------------------------------------------------
 Center     Atomic      Atomic             Coordinates (Angstroms)
 Number     Number       Type             X           Y           Z
 ---------------------------------------------------------------------
      1          8           0        0.000000    0.000000    0.061204
      2          1           0        0.000000    0.934668   -0.163211
      3          1           0       -0.809446   -0.467334   -0.163211
      4          1           0        0.809446   -0.467334   -0.163211
 ---------------------------------------------------------------------
 Rotational constants (GHZ):    348.8446317    348.8446317    191.3356046
 Standard basis: 6-31G(d,p) (6D, 7F)
 There are    20 symmetry adapted basis functions of A'  symmetry.
 There are    10 symmetry adapted basis functions of A"  symmetry.
 Integral buffers will be    131072 words long.
 Raffenetti 1 integral format.
 Two-electron integral symmetry is turned on.
    30 basis functions,    49 primitive gaussians,    30 cartesian basis functions
     5 alpha electrons        5 beta electrons
       nuclear repulsion energy        14.1931034569 Hartrees.
 NAtoms=    4 NActive=    4 NUniq=    2 SFac= 4.00D+00 NAtFMM=   60 NAOKFM=F Big=F
 One-electron integrals computed using PRISM.
 NBasis=    30 RedAO= T  NBF=    20    10
 NBsUse=    30 1.00D-06 NBFU=    20    10
 Initial guess read from the read-write file.
 B after Tr=     0.000000    0.000000    0.000000
         Rot=    1.000000    0.000000    0.000000    0.000000 Ang=   0.00 deg.
 Initial guess orbital symmetries:
       Occupied  (A1) (A1) (E) (E) (A1)
       Virtual   (A1) (E) (E) (E) (E) (A1) (A1) (E) (E) (A1) (E)
                 (E) (A1) (A2) (E) (E) (E) (E) (A1) (E) (E) (A1)
                 (E) (E) (A1)
 Requested convergence on RMS density matrix=1.00D-08 within 128 cycles.
 Requested convergence on MAX density matrix=1.00D-06.
 Requested convergence on             energy=1.00D-06.
 No special actions if energy rises.
 Keep R1 ints in memory in canonical form, NReq=949711.
 SCF Done:  E(RHF) =  -76.3103247958     A.U. after    8 cycles
             Convg  =    0.3705D-08             -V/T =  2.0030
 Calling FoFJK, ICntrl=      2127 FMM=F ISym2X=1 I1Cent= 0 IOpClX= 0 NMat=1 NMatS=1 NMatT=0.
 ***** Axes restored to original set *****
 -------------------------------------------------------------------
 Center     Atomic                   Forces (Hartrees/Bohr)
 Number     Number              X              Y              Z
 -------------------------------------------------------------------
      1        8           0.000003332   -0.000005771    0.000002356
      2        1          -0.000009175    0.000015892    0.000044834
      3        1           0.000039211    0.000015892   -0.000023595
      4        1          -0.000033368   -0.000026012   -0.000023595
 -------------------------------------------------------------------
 Cartesian Forces:  Max     0.000044834 RMS     0.000024308

 GradGradGradGradGradGradGradGradGradGradGradGradGradGradGradGradGradGrad
 Berny optimization.
 Using GEDIIS/GDIIS optimizer.
 Internal  Forces:  Max     0.000046499 RMS     0.000031825
 Search for a local minimum.
 Step number   5 out of a maximum of   20
 All quantities printed in internal units (Hartrees-Bohrs-Radians)
 Mixed Optimization -- En-DIIS/RFO-DIIS
 Swaping is turned off.
 Update second derivatives using D2CorX and points    1    2    3    4    5
 DE= -2.47D-05 DEPred=-1.86D-05 R= 1.32D+00
 SS=  1.41D+00  RLast= 4.75D-02 DXNew= 1.0090D+00 1.4257D-01
 Trust test= 1.32D+00 RLast= 4.75D-02 DXMaxT set to 6.00D-01
 The second derivative matrix:
                          R1        R2        R3        A1        A2
           R1           0.39667
           R2           0.04739   0.39667
           R3           0.04739   0.04739   0.39667
           A1          -0.00177  -0.00177  -0.00177   0.10928
           A2           0.00139   0.00139   0.00139  -0.05056   0.11333
           A3           0.00139   0.00139   0.00139  -0.05056  -0.04667
           D1          -0.00894  -0.00894  -0.00894   0.00211  -0.00571
                          A3        D1
           A3           0.11333
           D1          -0.00571   0.01870
 ITU=  1  1  1  1  0
     Eigenvalues ---    0.02099   0.15978   0.16000   0.34928   0.34928
     Eigenvalues ---    0.49195
 En-DIIS/RFO-DIIS IScMMF=        0 using points:     5    4
 RFO step:  Lambda=-1.24597936D-08.
 DidBck=F Rises=F RFO-DIIS coefs:    1.02162   -0.02162
 Iteration  1 RMS(Cart)=  0.00021903 RMS(Int)=  0.00000549
 Iteration  2 RMS(Cart)=  0.00000005 RMS(Int)=  0.00000549
 ClnCor:  largest displacement from symmetrization is 3.94D-07 for atom     4.
 Variable       Old X    -DE/DX   Delta X   Delta X   Delta X     New X
                                  (DIIS)     (GDIIS)  (Total)
    R1        1.81647   0.00005  -0.00001   0.00009   0.00008   1.81654
    R2        1.81647   0.00005  -0.00001   0.00009   0.00008   1.81654
    R3        1.81647   0.00005  -0.00001   0.00009   0.00008   1.81654
    A1        2.00230   0.00000   0.00025  -0.00001   0.00023   2.00253
    A2        2.00230   0.00001   0.00025  -0.00001   0.00023   2.00253
    A3        2.00230   0.00001   0.00025  -0.00001   0.00023   2.00253
    D1       -2.37305  -0.00002  -0.00093   0.00005  -0.00089  -2.37394
         Item               Value     Threshold  Converged?
 Maximum Force            0.000046     0.000002     NO 
 RMS     Force            0.000032     0.000001     NO 
 Maximum Displacement     0.000322     0.000006     NO 
 RMS     Displacement     0.000219     0.000004     NO 
 Predicted change in Energy=-1.685350D-08
 GradGradGradGradGradGradGradGradGradGradGradGradGradGradGradGradGradGrad

                          Input orientation:                          
 ---------------------------------------------------------------------
 Center     Atomic      Atomic             Coordinates (Angstroms)
 Number     Number       Type             X           Y           Z
 ---------------------------------------------------------------------
      1          8           0        0.049159   -0.085146    0.034761
      2          1           0       -0.000978    0.001694    0.990790
      3          1           0        0.933799    0.001694   -0.331185
      4          1           0       -0.468367   -0.807847   -0.331185
 ---------------------------------------------------------------------
                    Distance matrix (angstroms):
                    1          2          3          4
     1  O    0.000000
     2  H    0.961273   0.000000
     3  H    0.961273   1.619082   0.000000
     4  H    0.961273   1.619082   1.619082   0.000000
 Stoichiometry    H3O(1+)
 Framework group  C3V[C3(O),3SGV(H)]
 Deg. of freedom     2
 Full point group                 C3V     NOp   6
 Largest Abelian subgroup         CS      NOp   2
 Largest concise Abelian subgroup CS      NOp   2
                         Standard orientation:                         
 ---------------------------------------------------------------------
 Center     Atomic      Atomic             Coordinates (Angstroms)
 Number     Number       Type             X           Y           Z
 ---------------------------------------------------------------------
      1          8           0        0.000000    0.000000    0.061128
      2          1           0        0.000000    0.934777   -0.163008
      3          1           0       -0.809541   -0.467389   -0.163008
      4          1           0        0.809541   -0.467389   -0.163008
 ---------------------------------------------------------------------
 Rotational constants (GHZ):    348.8468078    348.8468078    191.2908975
 Standard basis: 6-31G(d,p) (6D, 7F)
 There are    20 symmetry adapted basis functions of A'  symmetry.
 There are    10 symmetry adapted basis functions of A"  symmetry.
 Integral buffers will be    131072 words long.
 Raffenetti 1 integral format.
 Two-electron integral symmetry is turned on.
    30 basis functions,    49 primitive gaussians,    30 cartesian basis functions
     5 alpha electrons        5 beta electrons
       nuclear repulsion energy        14.1924224007 Hartrees.
 NAtoms=    4 NActive=    4 NUniq=    2 SFac= 4.00D+00 NAtFMM=   60 NAOKFM=F Big=F
 One-electron integrals computed using PRISM.
 NBasis=    30 RedAO= T  NBF=    20    10
 NBsUse=    30 1.00D-06 NBFU=    20    10
 Initial guess read from the read-write file.
 B after Tr=     0.000000    0.000000    0.000000
         Rot=    1.000000    0.000000    0.000000    0.000000 Ang=   0.00 deg.
 Initial guess orbital symmetries:
       Occupied  (A1) (A1) (E) (E) (A1)
       Virtual   (A1) (E) (E) (E) (E) (A1) (A1) (E) (E) (A1) (E)
                 (E) (A1) (A2) (E) (E) (E) (E) (A1) (E) (E) (A1)
                 (E) (E) (A1)
 Requested convergence on RMS density matrix=1.00D-08 within 128 cycles.
 Requested convergence on MAX density matrix=1.00D-06.
 Requested convergence on             energy=1.00D-06.
 No special actions if energy rises.
 Keep R1 ints in memory in canonical form, NReq=949711.
 SCF Done:  E(RHF) =  -76.3103248128     A.U. after    6 cycles
             Convg  =    0.8456D-08             -V/T =  2.0030
 Calling FoFJK, ICntrl=      2127 FMM=F ISym2X=1 I1Cent= 0 IOpClX= 0 NMat=1 NMatS=1 NMatT=0.
 ***** Axes restored to original set *****
 -------------------------------------------------------------------
 Center     Atomic                   Forces (Hartrees/Bohr)
 Number     Number              X              Y              Z
 -------------------------------------------------------------------
      1        8           0.000003416   -0.000005917    0.000002416
      2        1          -0.000000243    0.000000422   -0.000005870
      3        1          -0.000005615    0.000000422    0.000001727
      4        1           0.000002442    0.000005074    0.000001727
 -------------------------------------------------------------------
 Cartesian Forces:  Max     0.000005917 RMS     0.000003612

 GradGradGradGradGradGradGradGradGradGradGradGradGradGradGradGradGradGrad
 Berny optimization.
 Using GEDIIS/GDIIS optimizer.
 Internal  Forces:  Max     0.000005787 RMS     0.000003862
 Search for a local minimum.
 Step number   6 out of a maximum of   20
 All quantities printed in internal units (Hartrees-Bohrs-Radians)
 Mixed Optimization -- En-DIIS/RFO-DIIS
 Swaping is turned off.
 Update second derivatives using D2CorX and points    1    2    3    4    5
                                                      6
 DE= -1.71D-08 DEPred=-1.69D-08 R= 1.01D+00
 Trust test= 1.01D+00 RLast= 9.87D-04 DXMaxT set to 6.00D-01
 The second derivative matrix:
                          R1        R2        R3        A1        A2
           R1           0.41221
           R2           0.06292   0.41221
           R3           0.06292   0.06292   0.41221
           A1          -0.00101  -0.00101  -0.00101   0.10928
           A2           0.00182   0.00182   0.00182  -0.05048   0.11313
           A3           0.00182   0.00182   0.00182  -0.05048  -0.04687
           D1          -0.01095  -0.01095  -0.01095   0.00197  -0.00492
                          A3        D1
           A3           0.11313
           D1          -0.00492   0.01655
 ITU=  0  1  1  1  1  0
     Eigenvalues ---    0.01843   0.15951   0.16000   0.34928   0.34928
     Eigenvalues ---    0.53874
 En-DIIS/RFO-DIIS IScMMF=        0 using points:     6    5    4
 RFO step:  Lambda= 0.00000000D+00.
 DidBck=F Rises=F RFO-DIIS coefs:    0.87238    0.13211   -0.00449
 Iteration  1 RMS(Cart)=  0.00001708 RMS(Int)=  0.00000115
 Iteration  2 RMS(Cart)=  0.00000000 RMS(Int)=  0.00000115
 ClnCor:  largest displacement from symmetrization is 4.91D-08 for atom     4.
 Variable       Old X    -DE/DX   Delta X   Delta X   Delta X     New X
                                  (DIIS)     (GDIIS)  (Total)
    R1        1.81654  -0.00001  -0.00001   0.00000  -0.00001   1.81653
    R2        1.81654  -0.00001  -0.00001   0.00000  -0.00001   1.81653
    R3        1.81654  -0.00001  -0.00001   0.00000  -0.00001   1.81653
    A1        2.00253   0.00000   0.00002   0.00000   0.00002   2.00256
    A2        2.00253   0.00000   0.00002   0.00000   0.00002   2.00256
    A3        2.00253   0.00000   0.00002   0.00000   0.00002   2.00256
    D1       -2.37394   0.00000  -0.00008   0.00000  -0.00008  -2.37402
         Item               Value     Threshold  Converged?
 Maximum Force            0.000006     0.000002     NO 
 RMS     Force            0.000004     0.000001     NO 
 Maximum Displacement     0.000032     0.000006     NO 
 RMS     Displacement     0.000017     0.000004     NO 
 Predicted change in Energy=-2.165158D-10
 GradGradGradGradGradGradGradGradGradGradGradGradGradGradGradGradGradGrad

                          Input orientation:                          
 ---------------------------------------------------------------------
 Center     Atomic      Atomic             Coordinates (Angstroms)
 Number     Number       Type             X           Y           Z
 ---------------------------------------------------------------------
      1          8           0        0.049169   -0.085163    0.034768
      2          1           0       -0.000981    0.001700    0.990787
      3          1           0        0.933796    0.001700   -0.331188
      4          1           0       -0.468370   -0.807841   -0.331188
 ---------------------------------------------------------------------
                    Distance matrix (angstroms):
                    1          2          3          4
     1  O    0.000000
     2  H    0.961267   0.000000
     3  H    0.961267   1.619083   0.000000
     4  H    0.961267   1.619083   1.619083   0.000000
 Stoichiometry    H3O(1+)
 Framework group  C3V[C3(O),3SGV(H)]
 Deg. of freedom     2
 Full point group                 C3V     NOp   6
 Largest Abelian subgroup         CS      NOp   2
 Largest concise Abelian subgroup CS      NOp   2
                         Standard orientation:                         
 ---------------------------------------------------------------------
 Center     Atomic      Atomic             Coordinates (Angstroms)
 Number     Number       Type             X           Y           Z
 ---------------------------------------------------------------------
      1          8           0        0.000000    0.000000    0.061121
      2          1           0        0.000000    0.934778   -0.162988
      3          1           0       -0.809541   -0.467389   -0.162988
      4          1           0        0.809541   -0.467389   -0.162988
 ---------------------------------------------------------------------
 Rotational constants (GHZ):    348.8542329    348.8542329    191.2908053
 Standard basis: 6-31G(d,p) (6D, 7F)
 There are    20 symmetry adapted basis functions of A'  symmetry.
 There are    10 symmetry adapted basis functions of A"  symmetry.
 Integral buffers will be    131072 words long.
 Raffenetti 1 integral format.
 Two-electron integral symmetry is turned on.
    30 basis functions,    49 primitive gaussians,    30 cartesian basis functions
     5 alpha electrons        5 beta electrons
       nuclear repulsion energy        14.1925076340 Hartrees.
 NAtoms=    4 NActive=    4 NUniq=    2 SFac= 4.00D+00 NAtFMM=   60 NAOKFM=F Big=F
 One-electron integrals computed using PRISM.
 NBasis=    30 RedAO= T  NBF=    20    10
 NBsUse=    30 1.00D-06 NBFU=    20    10
 Initial guess read from the read-write file.
 B after Tr=     0.000000    0.000000    0.000000
         Rot=    1.000000    0.000000    0.000000    0.000000 Ang=   0.00 deg.
 Initial guess orbital symmetries:
       Occupied  (A1) (A1) (E) (E) (A1)
       Virtual   (A1) (E) (E) (E) (E) (A1) (A1) (E) (E) (A1) (E)
                 (E) (A1) (A2) (E) (E) (E) (E) (A1) (E) (E) (A1)
                 (E) (E) (A1)
 Requested convergence on RMS density matrix=1.00D-08 within 128 cycles.
 Requested convergence on MAX density matrix=1.00D-06.
 Requested convergence on             energy=1.00D-06.
 No special actions if energy rises.
 Keep R1 ints in memory in canonical form, NReq=949711.
 SCF Done:  E(RHF) =  -76.3103248130     A.U. after    5 cycles
             Convg  =    0.3196D-08             -V/T =  2.0030
 Calling FoFJK, ICntrl=      2127 FMM=F ISym2X=1 I1Cent= 0 IOpClX= 0 NMat=1 NMatS=1 NMatT=0.
 ***** Axes restored to original set *****
 -------------------------------------------------------------------
 Center     Atomic                   Forces (Hartrees/Bohr)
 Number     Number              X              Y              Z
 -------------------------------------------------------------------
      1        8           0.000000323   -0.000000559    0.000000228
      2        1          -0.000000127    0.000000219    0.000000032
      3        1          -0.000000012    0.000000219   -0.000000130
      4        1          -0.000000184    0.000000120   -0.000000130
 -------------------------------------------------------------------
 Cartesian Forces:  Max     0.000000559 RMS     0.000000235

 GradGradGradGradGradGradGradGradGradGradGradGradGradGradGradGradGradGrad
 Berny optimization.
 Using GEDIIS/GDIIS optimizer.
 Internal  Forces:  Max     0.000000381 RMS     0.000000174
 Search for a local minimum.
 Step number   7 out of a maximum of   20
 All quantities printed in internal units (Hartrees-Bohrs-Radians)
 Mixed Optimization -- En-DIIS/RFO-DIIS
 Swaping is turned off.
 Update second derivatives using D2CorX and points    1    2    3    4    5
                                                      6    7
 DE= -2.04D-10 DEPred=-2.17D-10 R= 9.41D-01
 Trust test= 9.41D-01 RLast= 9.11D-05 DXMaxT set to 6.00D-01
 The second derivative matrix:
                          R1        R2        R3        A1        A2
           R1           0.42037
           R2           0.07108   0.42037
           R3           0.07108   0.07108   0.42037
           A1          -0.00012  -0.00012  -0.00012   0.10927
           A2           0.00316   0.00316   0.00316  -0.05060   0.11262
           A3           0.00316   0.00316   0.00316  -0.05060  -0.04738
           D1          -0.00784  -0.00784  -0.00784   0.00220  -0.00466
                          A3        D1
           A3           0.11262
           D1          -0.00466   0.01761
 ITU=  0  0  1  1  1  1  0
     Eigenvalues ---    0.01912   0.15917   0.16000   0.34928   0.34928
     Eigenvalues ---    0.56300
 En-DIIS/RFO-DIIS IScMMF=        0 using points:     7    6    5    4
 RFO step:  Lambda= 0.00000000D+00.
 DidBck=F Rises=F RFO-DIIS coefs:    1.10623   -0.09321   -0.01302    0.00001
 Iteration  1 RMS(Cart)=  0.00000437 RMS(Int)=  0.00000000
 Iteration  2 RMS(Cart)=  0.00000000 RMS(Int)=  0.00000000
 ClnCor:  largest displacement from symmetrization is 1.10D-12 for atom     4.
 Variable       Old X    -DE/DX   Delta X   Delta X   Delta X     New X
                                  (DIIS)     (GDIIS)  (Total)
    R1        1.81653   0.00000   0.00000   0.00000   0.00000   1.81653
    R2        1.81653   0.00000   0.00000   0.00000   0.00000   1.81653
    R3        1.81653   0.00000   0.00000   0.00000   0.00000   1.81653
    A1        2.00256   0.00000   0.00001   0.00000   0.00001   2.00256
    A2        2.00256   0.00000   0.00001   0.00000   0.00001   2.00256
    A3        2.00256   0.00000   0.00001   0.00000   0.00001   2.00256
    D1       -2.37402   0.00000  -0.00002   0.00000  -0.00002  -2.37404
         Item               Value     Threshold  Converged?
 Maximum Force            0.000000     0.000002     YES
 RMS     Force            0.000000     0.000001     YES
 Maximum Displacement     0.000007     0.000006     NO 
 RMS     Displacement     0.000004     0.000004     NO 
 Predicted change in Energy=-4.641589D-12
 GradGradGradGradGradGradGradGradGradGradGradGradGradGradGradGradGradGrad

                          Input orientation:                          
 ---------------------------------------------------------------------
 Center     Atomic      Atomic             Coordinates (Angstroms)
 Number     Number       Type             X           Y           Z
 ---------------------------------------------------------------------
      1          8           0        0.049171   -0.085167    0.034769
      2          1           0       -0.000982    0.001702    0.990788
      3          1           0        0.933797    0.001702   -0.331189
      4          1           0       -0.468372   -0.807841   -0.331189
 ---------------------------------------------------------------------
                    Distance matrix (angstroms):
                    1          2          3          4
     1  O    0.000000
     2  H    0.961267   0.000000
     3  H    0.961267   1.619085   0.000000
     4  H    0.961267   1.619085   1.619085   0.000000
 Stoichiometry    H3O(1+)
 Framework group  C3V[C3(O),3SGV(H)]
 Deg. of freedom     2
 Full point group                 C3V     NOp   6
 Largest Abelian subgroup         CS      NOp   2
 Largest concise Abelian subgroup CS      NOp   2
                         Standard orientation:                         
 ---------------------------------------------------------------------
 Center     Atomic      Atomic             Coordinates (Angstroms)
 Number     Number       Type             X           Y           Z
 ---------------------------------------------------------------------
      1          8           0        0.000000    0.000000    0.061119
      2          1           0        0.000000    0.934779   -0.162983
      3          1           0       -0.809542   -0.467390   -0.162983
      4          1           0        0.809542   -0.467390   -0.162983
 ---------------------------------------------------------------------
 Rotational constants (GHZ):    348.8550380    348.8550380    191.2902229
 Standard basis: 6-31G(d,p) (6D, 7F)
 There are    20 symmetry adapted basis functions of A'  symmetry.
 There are    10 symmetry adapted basis functions of A"  symmetry.
 Integral buffers will be    131072 words long.
 Raffenetti 1 integral format.
 Two-electron integral symmetry is turned on.
    30 basis functions,    49 primitive gaussians,    30 cartesian basis functions
     5 alpha electrons        5 beta electrons
       nuclear repulsion energy        14.1925078292 Hartrees.
 NAtoms=    4 NActive=    4 NUniq=    2 SFac= 4.00D+00 NAtFMM=   60 NAOKFM=F Big=F
 One-electron integrals computed using PRISM.
 NBasis=    30 RedAO= T  NBF=    20    10
 NBsUse=    30 1.00D-06 NBFU=    20    10
 Initial guess read from the read-write file.
 B after Tr=     0.000000    0.000000    0.000000
         Rot=    1.000000    0.000000    0.000000    0.000000 Ang=   0.00 deg.
 Initial guess orbital symmetries:
       Occupied  (A1) (A1) (E) (E) (A1)
       Virtual   (A1) (E) (E) (E) (E) (A1) (A1) (E) (E) (A1) (E)
                 (E) (A1) (A2) (E) (E) (E) (E) (A1) (E) (E) (A1)
                 (E) (E) (A1)
 Requested convergence on RMS density matrix=1.00D-08 within 128 cycles.
 Requested convergence on MAX density matrix=1.00D-06.
 Requested convergence on             energy=1.00D-06.
 No special actions if energy rises.
 Keep R1 ints in memory in canonical form, NReq=949711.
 SCF Done:  E(RHF) =  -76.3103248131     A.U. after    3 cycles
             Convg  =    0.9242D-08             -V/T =  2.0030
 Calling FoFJK, ICntrl=      2127 FMM=F ISym2X=1 I1Cent= 0 IOpClX= 0 NMat=1 NMatS=1 NMatT=0.
 ***** Axes restored to original set *****
 -------------------------------------------------------------------
 Center     Atomic                   Forces (Hartrees/Bohr)
 Number     Number              X              Y              Z
 -------------------------------------------------------------------
      1        8          -0.000000017    0.000000029   -0.000000012
      2        1           0.000000003   -0.000000005    0.000000019
      3        1           0.000000019   -0.000000005   -0.000000003
      4        1          -0.000000005   -0.000000019   -0.000000003
 -------------------------------------------------------------------
 Cartesian Forces:  Max     0.000000029 RMS     0.000000014

 GradGradGradGradGradGradGradGradGradGradGradGradGradGradGradGradGradGrad
 Berny optimization.
 Using GEDIIS/GDIIS optimizer.
 Internal  Forces:  Max     0.000000018 RMS     0.000000013
 Search for a local minimum.
 Step number   8 out of a maximum of   20
 All quantities printed in internal units (Hartrees-Bohrs-Radians)
 Mixed Optimization -- En-DIIS/RFO-DIIS
 Swaping is turned off.
 Update second derivatives using D2CorX and points    1    2    3    4    5
                                                      6    7    8
 DE= -4.62D-12 DEPred=-4.64D-12 R= 9.95D-01
 Trust test= 9.95D-01 RLast= 2.18D-05 DXMaxT set to 6.00D-01
 The second derivative matrix:
                          R1        R2        R3        A1        A2
           R1           0.41972
           R2           0.07043   0.41972
           R3           0.07043   0.07043   0.41972
           A1          -0.00029  -0.00029  -0.00029   0.10929
           A2           0.00239   0.00239   0.00239  -0.05056   0.11282
           A3           0.00239   0.00239   0.00239  -0.05056  -0.04718
           D1          -0.00738  -0.00738  -0.00738   0.00220  -0.00488
                          A3        D1
           A3           0.11282
           D1          -0.00488   0.01804
 ITU=  0  0  0  1  1  1  1  0
     Eigenvalues ---    0.01978   0.15933   0.16000   0.34928   0.34928
     Eigenvalues ---    0.56096
 En-DIIS/RFO-DIIS IScMMF=        0 using points:     8    7    6    5    4
 RFO step:  Lambda= 0.00000000D+00.
 DidBck=F Rises=F     DIIS coefs:    1.00000    0.00000    0.00000    0.00000    0.00000
 Iteration  1 RMS(Cart)=  0.00000014 RMS(Int)=  0.00000000
 ClnCor:  largest displacement from symmetrization is 1.70D-10 for atom     4.
 Variable       Old X    -DE/DX   Delta X   Delta X   Delta X     New X
                                  (DIIS)     (GDIIS)  (Total)
    R1        1.81653   0.00000   0.00000   0.00000   0.00000   1.81653
    R2        1.81653   0.00000   0.00000   0.00000   0.00000   1.81653
    R3        1.81653   0.00000   0.00000   0.00000   0.00000   1.81653
    A1        2.00256   0.00000   0.00000   0.00000   0.00000   2.00256
    A2        2.00256   0.00000   0.00000   0.00000   0.00000   2.00256
    A3        2.00256   0.00000   0.00000   0.00000   0.00000   2.00256
    D1       -2.37404   0.00000   0.00000   0.00000   0.00000  -2.37404
         Item               Value     Threshold  Converged?
 Maximum Force            0.000000     0.000002     YES
 RMS     Force            0.000000     0.000001     YES
 Maximum Displacement     0.000000     0.000006     YES
 RMS     Displacement     0.000000     0.000004     YES
 Predicted change in Energy=-6.156814D-15
 Optimization completed.
    -- Stationary point found.
                           ----------------------------
                           !   Optimized Parameters   !
                           ! (Angstroms and Degrees)  !
 --------------------------                            --------------------------
 ! Name  Definition              Value          Derivative Info.                !
 --------------------------------------------------------------------------------
 ! R1    R(1,2)                  0.9613         -DE/DX =    0.0                 !
 ! R2    R(1,3)                  0.9613         -DE/DX =    0.0                 !
 ! R3    R(1,4)                  0.9613         -DE/DX =    0.0                 !
 ! A1    A(2,1,3)              114.7383         -DE/DX =    0.0                 !
 ! A2    A(2,1,4)              114.7383         -DE/DX =    0.0                 !
 ! A3    A(3,1,4)              114.7383         -DE/DX =    0.0                 !
 ! D1    D(2,1,4,3)           -136.0226         -DE/DX =    0.0                 !
 --------------------------------------------------------------------------------
 GradGradGradGradGradGradGradGradGradGradGradGradGradGradGradGradGradGrad

                          Input orientation:                          
 ---------------------------------------------------------------------
 Center     Atomic      Atomic             Coordinates (Angstroms)
 Number     Number       Type             X           Y           Z
 ---------------------------------------------------------------------
      1          8           0        0.049171   -0.085167    0.034769
      2          1           0       -0.000982    0.001702    0.990788
      3          1           0        0.933797    0.001702   -0.331189
      4          1           0       -0.468372   -0.807841   -0.331189
 ---------------------------------------------------------------------
                    Distance matrix (angstroms):
                    1          2          3          4
     1  O    0.000000
     2  H    0.961267   0.000000
     3  H    0.961267   1.619085   0.000000
     4  H    0.961267   1.619085   1.619085   0.000000
 Stoichiometry    H3O(1+)
 Framework group  C3V[C3(O),3SGV(H)]
 Deg. of freedom     2
 Full point group                 C3V     NOp   6
 Largest Abelian subgroup         CS      NOp   2
 Largest concise Abelian subgroup CS      NOp   2
                         Standard orientation:                         
 ---------------------------------------------------------------------
 Center     Atomic      Atomic             Coordinates (Angstroms)
 Number     Number       Type             X           Y           Z
 ---------------------------------------------------------------------
      1          8           0        0.000000    0.000000    0.061119
      2          1           0        0.000000    0.934779   -0.162983
      3          1           0       -0.809542   -0.467390   -0.162983
      4          1           0        0.809542   -0.467390   -0.162983
 ---------------------------------------------------------------------
 Rotational constants (GHZ):    348.8550380    348.8550380    191.2902229

 **********************************************************************

            Population analysis using the SCF density.

 **********************************************************************

 Orbital symmetries:
       Occupied  (A1) (A1) (E) (E) (A1)
       Virtual   (A1) (E) (E) (E) (E) (A1) (A1) (E) (E) (A1) (E)
                 (E) (A1) (A2) (E) (E) (E) (E) (A1) (E) (E) (A1)
                 (E) (E) (A1)
 The electronic state is 1-A1.
 Alpha  occ. eigenvalues --  -21.01189  -1.80917  -1.14905  -1.14905  -0.94999
 Alpha virt. eigenvalues --   -0.10805   0.00409   0.00409   0.64679   0.64679
 Alpha virt. eigenvalues --    0.70556   0.76254   0.89630   0.89630   1.09783
 Alpha virt. eigenvalues --    1.34330   1.34330   1.98641   1.99910   2.21540
 Alpha virt. eigenvalues --    2.21540   2.51592   2.51592   2.57948   3.03339
 Alpha virt. eigenvalues --    3.03339   3.31116   3.47964   3.47964   4.04748
          Condensed to atoms (all electrons):
              1          2          3          4
     1  O    7.512318   0.308811   0.308811   0.308811
     2  H    0.308811   0.228316  -0.008355  -0.008355
     3  H    0.308811  -0.008355   0.228316  -0.008355
     4  H    0.308811  -0.008355  -0.008355   0.228316
 Mulliken atomic charges:
              1
     1  O   -0.438750
     2  H    0.479583
     3  H    0.479583
     4  H    0.479583
 Sum of Mulliken atomic charges =   1.00000
 Mulliken charges with hydrogens summed into heavy atoms:
              1
     1  O    1.000000
 Sum of Mulliken charges with hydrogens summed into heavy atoms =   1.00000
 Electronic spatial extent (au):  <R**2>=             17.8770
 Charge=              1.0000 electrons
 Dipole moment (field-independent basis, Debye):
    X=              0.0000    Y=              0.0000    Z=             -1.3609  Tot=              1.3609
 Quadrupole moment (field-independent basis, Debye-Ang):
   XX=             -2.3380   YY=             -2.3380   ZZ=             -6.2517
   XY=              0.0000   XZ=              0.0000   YZ=              0.0000
 Traceless Quadrupole moment (field-independent basis, Debye-Ang):
   XX=              1.3046   YY=              1.3046   ZZ=             -2.6092
   XY=              0.0000   XZ=              0.0000   YZ=              0.0000
 Octapole moment (field-independent basis, Debye-Ang**2):
  XXX=              0.0000  YYY=              1.7823  ZZZ=             -0.6769  XYY=              0.0000
  XXY=             -1.7823  XXZ=             -0.8135  XZZ=              0.0000  YZZ=              0.0000
  YYZ=             -0.8135  XYZ=              0.0000
 Hexadecapole moment (field-independent basis, Debye-Ang**3):
 XXXX=             -2.7112 YYYY=             -2.7112 ZZZZ=             -4.4874 XXXY=              0.0000
 XXXZ=              0.0000 YYYX=              0.0000 YYYZ=             -0.3410 ZZZX=              0.0000
 ZZZY=              0.0000 XXYY=             -0.9037 XXZZ=             -1.5551 YYZZ=             -1.5551
 XXYZ=              0.3410 YYXZ=              0.0000 ZZXY=              0.0000
 N-N= 1.419250782918D+01 E-N=-2.049493916507D+02  KE= 7.608203567700D+01
 Symmetry A'   KE= 7.221818233740D+01
 Symmetry A"   KE= 3.863853339606D+00
 B after Tr=    -0.059174    0.102493   -0.041842
         Rot=    1.000000    0.000001    0.000000    0.000000 Ang=   0.00 deg.
 Final structure in terms of initial Z-matrix:
 O
 H,1,ho2
 H,1,ho3,2,hoh3
 H,1,ho4,2,hoh4,3,dih4,0
      Variables:
 ho2=0.96126678
 ho3=0.96126678
 hoh3=114.73829026
 ho4=0.96126678
 hoh4=114.73829026
 dih4=136.02261648
 1\1\GINC-NISER-THINKCENTRE-M93P\FOpt\RHF\6-31G(d,p)\H3O1(1+)\STUDENT\0
 1-Mar-2021\0\\#hf/6-31g** opt=(verytight) freq\\xx\\1,1\O,0.0491712276
 ,-0.0851670644,0.0347696326\H,-0.000982528,0.0017017883,0.9907885754\H
 ,0.9337966123,0.0017017883,-0.3311887626\H,-0.4683720981,-0.807840694,
 -0.3311887626\\Version=EM64L-G09RevC.01\State=1-A1\HF=-76.3103248\RMSD
 =9.242e-09\RMSF=1.435e-08\Dipole=0.2524076,-0.4371829,0.1784792\Quadru
 pole=0.32331,-0.9699301,0.6466201,1.1199789,-0.4572295,0.7919446\PG=C0
 3V [C3(O1),3SGV(H1)]\\@


 THERE IS NO SUBJECT, HOWEVER COMPLEX,
 WHICH, IF STUDIED WITH PATIENCE AND INTELLIGIENCE
 WILL NOT BECOME
 MORE COMPLEX
                        QUOTED BY D. GORDON ROHMAN
 Job cpu time:  0 days  0 hours  0 minutes  4.6 seconds.
 File lengths (MBytes):  RWF=      5 Int=      0 D2E=      0 Chk=      1 Scr=      1
 Normal termination of Gaussian 09 at Mon Mar  1 15:13:59 2021.
 Link1:  Proceeding to internal job step number  2.
 -------------------------------------------------------------------
 #N Geom=AllCheck Guess=TCheck SCRF=Check GenChk RHF/6-31G(d,p) Freq
 -------------------------------------------------------------------
 1/7=1,10=4,29=7,30=1,38=1,40=1/1,3;
 2/12=2,40=1/2;
 3/5=1,6=6,7=101,11=1,14=-4,16=1,25=1,30=1,70=2,71=2,116=1/1,2,3;
 4/5=101/1;
 5/5=2,98=1/2;
 8/6=4,10=90,11=11/1;
 10/13=10,15=4/2;
 11/6=3,8=1,9=11,15=111,16=1/1,2,10;
 10/6=1/2;
 6/7=2,8=2,9=2,10=2,18=1,28=1/1;
 7/8=1,10=1,25=1/1,2,3,16;
 1/7=1,10=4,30=1/3;
 99//99;
 Structure from the checkpoint file:  /home/student/singh/Gau-15201.chk
 --
 xx
 --
 Charge =  1 Multiplicity = 1
 Redundant internal coordinates found in file.
 O,0,0.0491712785,-0.0851671526,0.0347693445
 H,0,-0.000982477,0.0017017001,0.9907882873
 H,0,0.9337966632,0.0017017001,-0.3311890507
 H,0,-0.4683720471,-0.8078407822,-0.3311890507
 Recover connectivity data from disk.

 GradGradGradGradGradGradGradGradGradGradGradGradGradGradGradGradGradGrad
 Berny optimization.
 Initialization pass.
                           ----------------------------
                           !    Initial Parameters    !
                           ! (Angstroms and Degrees)  !
 --------------------------                            --------------------------
 ! Name  Definition              Value          Derivative Info.                !
 --------------------------------------------------------------------------------
 ! R1    R(1,2)                  0.9613         calculate D2E/DX2 analytically  !
 ! R2    R(1,3)                  0.9613         calculate D2E/DX2 analytically  !
 ! R3    R(1,4)                  0.9613         calculate D2E/DX2 analytically  !
 ! A1    A(2,1,3)              114.7383         calculate D2E/DX2 analytically  !
 ! A2    A(2,1,4)              114.7383         calculate D2E/DX2 analytically  !
 ! A3    A(3,1,4)              114.7383         calculate D2E/DX2 analytically  !
 ! D1    D(2,1,4,3)           -136.0226         calculate D2E/DX2 analytically  !
 --------------------------------------------------------------------------------
 Trust Radius=3.00D-01 FncErr=1.00D-07 GrdErr=1.00D-07
 Number of steps in this run=      2 maximum allowed number of steps=      2.
 GradGradGradGradGradGradGradGradGradGradGradGradGradGradGradGradGradGrad

                          Input orientation:                          
 ---------------------------------------------------------------------
 Center     Atomic      Atomic             Coordinates (Angstroms)
 Number     Number       Type             X           Y           Z
 ---------------------------------------------------------------------
      1          8           0        0.049171   -0.085167    0.034769
      2          1           0       -0.000982    0.001702    0.990788
      3          1           0        0.933797    0.001702   -0.331189
      4          1           0       -0.468372   -0.807841   -0.331189
 ---------------------------------------------------------------------
                    Distance matrix (angstroms):
                    1          2          3          4
     1  O    0.000000
     2  H    0.961267   0.000000
     3  H    0.961267   1.619085   0.000000
     4  H    0.961267   1.619085   1.619085   0.000000
 Stoichiometry    H3O(1+)
 Framework group  C3V[C3(O),3SGV(H)]
 Deg. of freedom     2
 Full point group                 C3V     NOp   6
 Largest Abelian subgroup         CS      NOp   2
 Largest concise Abelian subgroup CS      NOp   2
                         Standard orientation:                         
 ---------------------------------------------------------------------
 Center     Atomic      Atomic             Coordinates (Angstroms)
 Number     Number       Type             X           Y           Z
 ---------------------------------------------------------------------
      1          8           0        0.000000    0.000000    0.061119
      2          1           0        0.000000    0.934779   -0.162983
[...]
 Keep R1 ints in memory in canonical form, NReq=949711.
 SCF Done:  E(RHF) =  -76.3103248131     A.U. after    1 cycles
             Convg  =    0.2766D-08             -V/T =  2.0030
 Range of M.O.s used for correlation:     1    30
 NBasis=    30 NAE=     5 NBE=     5 NFC=     0 NFV=     0
 NROrb=     30 NOA=     5 NOB=     5 NVA=    25 NVB=    25
          Differentiating once with respect to electric field.
                with respect to dipole field.
          Electric field/nuclear overlap derivatives assumed to be zero.
          Keep R1 ints in memory in canonical form, NReq=928902.
          There are     3 degrees of freedom in the 1st order CPHF.  IDoFFX=0.
      3 vectors produced by pass  0 Test12= 4.17D-15 3.33D-08 XBig12= 7.86D-01 5.32D-01.
 AX will form     3 AO Fock derivatives at one time.
      3 vectors produced by pass  1 Test12= 4.17D-15 3.33D-08 XBig12= 2.33D-02 9.81D-02.
      3 vectors produced by pass  2 Test12= 4.17D-15 3.33D-08 XBig12= 1.91D-03 1.94D-02.
      3 vectors produced by pass  3 Test12= 4.17D-15 3.33D-08 XBig12= 8.58D-05 3.32D-03.
      3 vectors produced by pass  4 Test12= 4.17D-15 3.33D-08 XBig12= 8.00D-07 4.42D-04.
      3 vectors produced by pass  5 Test12= 4.17D-15 3.33D-08 XBig12= 6.89D-09 4.58D-05.
      3 vectors produced by pass  6 Test12= 4.17D-15 3.33D-08 XBig12= 3.82D-11 2.73D-06.
      3 vectors produced by pass  7 Test12= 4.17D-15 3.33D-08 XBig12= 2.34D-13 2.59D-07.
 Inverted reduced A of dimension    24 with in-core refinement.
 End of Minotr Frequency-dependent properties file   721 does not exist.
 End of Minotr Frequency-dependent properties file   722 does not exist.
 Symmetrizing basis deriv contribution to polar:
 IMax=3 JMax=2 DiffMx= 0.00D+00
 G2DrvN: will do     5 centers at a time, making    1 passes doing MaxLOS=2.
 Calling FoFCou, ICntrl=  3107 FMM=F I1Cent=   0 AccDes= 0.00D+00.
 FoFDir/FoFCou used for L=0 through L=2.
 End of G2Drv Frequency-dependent properties file   721 does not exist.
 End of G2Drv Frequency-dependent properties file   722 does not exist.
          IDoAtm=1111
          Differentiating once with respect to electric field.
                with respect to dipole field.
          Differentiating once with respect to nuclear coordinates.
          Keep R1 ints in memory in canonical form, NReq=928986.
          There are     9 degrees of freedom in the 1st order CPHF.  IDoFFX=4.
 Will reuse    3 saved solutions.
      6 vectors produced by pass  0 Test12= 1.39D-15 1.11D-08 XBig12= 2.70D-02 7.83D-02.
 AX will form     6 AO Fock derivatives at one time.
      6 vectors produced by pass  1 Test12= 1.39D-15 1.11D-08 XBig12= 9.96D-04 1.48D-02.
      6 vectors produced by pass  2 Test12= 1.39D-15 1.11D-08 XBig12= 2.09D-05 2.40D-03.
      6 vectors produced by pass  3 Test12= 1.39D-15 1.11D-08 XBig12= 2.68D-07 2.41D-04.
      6 vectors produced by pass  4 Test12= 1.39D-15 1.11D-08 XBig12= 1.32D-09 1.67D-05.
      6 vectors produced by pass  5 Test12= 1.39D-15 1.11D-08 XBig12= 3.21D-12 7.10D-07.
      4 vectors produced by pass  6 Test12= 1.39D-15 1.11D-08 XBig12= 1.01D-14 4.77D-08.
 Inverted reduced A of dimension    40 with in-core refinement.
 Isotropic polarizability for W=    0.000000        4.40 Bohr**3.
 End of Minotr Frequency-dependent properties file   721 does not exist.
 End of Minotr Frequency-dependent properties file   722 does not exist.

 **********************************************************************

            Population analysis using the SCF density.

 **********************************************************************

 Orbital symmetries:
       Occupied  (A1) (A1) (E) (E) (A1)
       Virtual   (A1) (E) (E) (E) (E) (A1) (A1) (E) (E) (A1) (E)
                 (E) (A1) (A2) (E) (E) (E) (E) (A1) (E) (E) (A1)
                 (E) (E) (A1)
 The electronic state is 1-A1.
 Alpha  occ. eigenvalues --  -21.01189  -1.80917  -1.14905  -1.14905  -0.94999
 Alpha virt. eigenvalues --   -0.10805   0.00409   0.00409   0.64679   0.64679
 Alpha virt. eigenvalues --    0.70556   0.76254   0.89630   0.89630   1.09783
 Alpha virt. eigenvalues --    1.34330   1.34330   1.98641   1.99910   2.21540
 Alpha virt. eigenvalues --    2.21540   2.51592   2.51592   2.57948   3.03339
 Alpha virt. eigenvalues --    3.03339   3.31116   3.47964   3.47964   4.04748
          Condensed to atoms (all electrons):
              1          2          3          4
     1  O    7.512318   0.308811   0.308811   0.308811
     2  H    0.308811   0.228316  -0.008355  -0.008355
     3  H    0.308811  -0.008355   0.228316  -0.008355
     4  H    0.308811  -0.008355  -0.008355   0.228316
 Mulliken atomic charges:
              1
     1  O   -0.438750
     2  H    0.479583
     3  H    0.479583
     4  H    0.479583
 Sum of Mulliken atomic charges =   1.00000
 Mulliken charges with hydrogens summed into heavy atoms:
              1
     1  O    1.000000
 Sum of Mulliken charges with hydrogens summed into heavy atoms =   1.00000
 APT atomic charges:
              1
     1  O   -0.552818
     2  H    0.517606
     3  H    0.517606
     4  H    0.517606
 Sum of APT charges=   1.00000
 APT Atomic charges with hydrogens summed into heavy atoms:
              1
     1  O    1.000000
     2  H    0.000000
     3  H    0.000000
     4  H    0.000000
 Sum of APT charges=   1.00000
 Electronic spatial extent (au):  <R**2>=             17.8770
 Charge=              1.0000 electrons
 Dipole moment (field-independent basis, Debye):
    X=              0.0000    Y=              0.0000    Z=             -1.3609  Tot=              1.3609
 Quadrupole moment (field-independent basis, Debye-Ang):
   XX=             -2.3380   YY=             -2.3380   ZZ=             -6.2517
   XY=              0.0000   XZ=              0.0000   YZ=              0.0000
 Traceless Quadrupole moment (field-independent basis, Debye-Ang):
   XX=              1.3046   YY=              1.3046   ZZ=             -2.6092
   XY=              0.0000   XZ=              0.0000   YZ=              0.0000
 Octapole moment (field-independent basis, Debye-Ang**2):
  XXX=              0.0000  YYY=              1.7823  ZZZ=             -0.6769  XYY=              0.0000
  XXY=             -1.7823  XXZ=             -0.8135  XZZ=              0.0000  YZZ=              0.0000
  YYZ=             -0.8135  XYZ=              0.0000
 Hexadecapole moment (field-independent basis, Debye-Ang**3):
 XXXX=             -2.7112 YYYY=             -2.7112 ZZZZ=             -4.4874 XXXY=              0.0000
 XXXZ=              0.0000 YYYX=              0.0000 YYYZ=             -0.3410 ZZZX=              0.0000
 ZZZY=              0.0000 XXYY=             -0.9037 XXZZ=             -1.5551 YYZZ=             -1.5551
 XXYZ=              0.3410 YYXZ=              0.0000 ZZXY=              0.0000
 N-N= 1.419250782918D+01 E-N=-2.049493905819D+02  KE= 7.608203511253D+01
 Symmetry A'   KE= 7.221818192097D+01
 Symmetry A"   KE= 3.863853191562D+00
  Exact polarizability:   5.126   0.000   5.126   0.000   0.000   2.938
 Approx polarizability:   4.377   0.000   4.377   0.000   0.000   2.624
 Calling FoFJK, ICntrl=    100127 FMM=F ISym2X=1 I1Cent= 0 IOpClX= 0 NMat=1 NMatS=1 NMatT=0.
 Full mass-weighted force constant matrix:
 Low frequencies ---   -0.5407   -0.5405   -0.0017    0.0431    0.0840    0.1217
 Low frequencies ---  781.2951 1788.5501 1788.5501
 Harmonic frequencies (cm**-1), IR intensities (KM/Mole), Raman scattering
 activities (A**4/AMU), depolarization ratios for plane and unpolarized
 incident light, reduced masses (AMU), force constants (mDyne/A),
 and normal coordinates:
                     1                      2                      3
                    A1                      E                      E
 Frequencies --   781.2951              1788.5501              1788.5501
 Red. masses --     1.1738                 1.0695                 1.0695
 Frc consts  --     0.4222                 2.0158                 2.0158
 IR Inten    --   628.9979               141.1673               141.1673
 Raman Activ --     0.5999                 1.9049                 1.9049
 Depolar (P) --     0.1395                 0.7500                 0.7500
 Depolar (U) --     0.2449                 0.8571                 0.8571
  Atom  AN      X      Y      Z        X      Y      Z        X      Y      Z
     1   8     0.00   0.00   0.11     0.00   0.06   0.00    -0.06   0.00   0.00
     2   1     0.00  -0.14  -0.56    -0.01   0.11   0.16     0.79   0.00   0.00
     3   1     0.12   0.07  -0.56     0.39  -0.56  -0.08     0.12  -0.39   0.14
     4   1    -0.12   0.07  -0.56    -0.39  -0.57  -0.08     0.11   0.39  -0.14
                     4                      5                      6
                    A1                      E                      E
 Frequencies --  3857.7356              3993.8479              3993.8479
 Red. masses --     1.0155                 1.0932                 1.0932
 Frc consts  --     8.9042                10.2742                10.2742
 IR Inten    --    45.9679               630.3701               630.3701
 Raman Activ --    38.6190                10.7228                10.7228
 Depolar (P) --     0.0860                 0.7500                 0.7500
 Depolar (U) --     0.1584                 0.8571                 0.8571
  Atom  AN      X      Y      Z        X      Y      Z        X      Y      Z
     1   8     0.00   0.00   0.02     0.00   0.08   0.00     0.08   0.00   0.00
     2   1     0.00   0.56  -0.12     0.00  -0.79   0.19    -0.01   0.01   0.00
     3   1    -0.49  -0.28  -0.12    -0.35  -0.21  -0.10    -0.59  -0.34  -0.16
     4   1     0.49  -0.28  -0.12     0.33  -0.20  -0.09    -0.60   0.34   0.17

 -------------------
 - Thermochemistry -
 -------------------
 Temperature   298.150 Kelvin.  Pressure   1.00000 Atm.
 Atom     1 has atomic number  8 and mass  15.99491
 Atom     2 has atomic number  1 and mass   1.00783
 Atom     3 has atomic number  1 and mass   1.00783
 Atom     4 has atomic number  1 and mass   1.00783
 Molecular mass:    19.01839 amu.
 Principal axes and moments of inertia in atomic units:
                           1         2         3
     Eigenvalues --     5.17333   5.17333   9.43457
           X           -0.65520   0.75545   0.00000
           Y            0.75545   0.65520   0.00000
           Z            0.00000   0.00000   1.00000
 This molecule is an oblate symmetric top.
 Rotational symmetry number  3.
 Rotational temperatures (Kelvin)     16.74238    16.74238     9.18047
 Rotational constants (GHZ):         348.85504   348.85504   191.29022
 Zero-point vibrational energy      96920.4 (Joules/Mol)
                                   23.16453 (Kcal/Mol)
 Vibrational temperatures:   1124.11  2573.32  2573.32  5550.41  5746.25
          (Kelvin)           5746.25
 
 Zero-point correction=                           0.036915 (Hartree/Particle)
 Thermal correction to Energy=                    0.039834
 Thermal correction to Enthalpy=                  0.040779
 Thermal correction to Gibbs Free Energy=         0.018867
 Sum of electronic and zero-point Energies=            -76.273410
 Sum of electronic and thermal Energies=               -76.270490
 Sum of electronic and thermal Enthalpies=             -76.269546
 Sum of electronic and thermal Free Energies=          -76.291457
 
                     E (Thermal)             CV                S
                      KCal/Mol        Cal/Mol-Kelvin    Cal/Mol-Kelvin
 Total                   24.997              6.697             46.116
 Electronic               0.000              0.000              0.000
 Translational            0.889              2.981             34.771
 Rotational               0.889              2.981             11.116
 Vibrational             23.219              0.735              0.230
                       Q            Log10(Q)             Ln(Q)
 Total Bot       0.209726D-08         -8.678347        -19.982634
 Total V=0       0.200149D+09          8.301353         19.114571
 Vib (Bot)       0.107295D-16        -16.969419        -39.073532
 Vib (V=0)       0.102395D+01          0.010281          0.023672
 Electronic      0.100000D+01          0.000000          0.000000
 Translational   0.325999D+07          6.513216         14.997234
 Rotational      0.599592D+02          1.777856          4.093665
 ***** Axes restored to original set *****
 -------------------------------------------------------------------
 Center     Atomic                   Forces (Hartrees/Bohr)
 Number     Number              X              Y              Z
 -------------------------------------------------------------------
      1        8          -0.000000004    0.000000007   -0.000000003
      2        1           0.000000003   -0.000000005   -0.000000007
      3        1          -0.000000005   -0.000000005    0.000000005
      4        1           0.000000007    0.000000002    0.000000005
 -------------------------------------------------------------------
 Cartesian Forces:  Max     0.000000007 RMS     0.000000005

 GradGradGradGradGradGradGradGradGradGradGradGradGradGradGradGradGradGrad
 Berny optimization.
 Internal  Forces:  Max     0.000000007 RMS     0.000000006
 Search for a local minimum.
 Step number   1 out of a maximum of    2
 All quantities printed in internal units (Hartrees-Bohrs-Radians)
 Second derivative matrix not updated -- analytic derivatives used.
 The second derivative matrix:
                          R1        R2        R3        A1        A2
           R1           0.55984
           R2           0.00140   0.55984
           R3           0.00140   0.00140   0.55984
           A1           0.00148   0.00148  -0.00304   0.07199
           A2           0.00496  -0.00015   0.00539  -0.04745   0.10328
           A3          -0.00015   0.00496   0.00539  -0.04745  -0.03465
           D1          -0.00784  -0.00784  -0.00747  -0.00585  -0.00307
                          A3        D1
           A3           0.10328
           D1          -0.00307   0.01629
 ITU=  0
     Eigenvalues ---    0.01906   0.13731   0.13787   0.55850   0.55850
     Eigenvalues ---    0.56311
 Angle between quadratic step and forces=  90.00 degrees.
 Linear search not attempted -- first point.
 Iteration  1 RMS(Cart)=  0.00000008 RMS(Int)=  0.00000000
 ClnCor:  largest displacement from symmetrization is 4.64D-14 for atom     3.
 Variable       Old X    -DE/DX   Delta X   Delta X   Delta X     New X
                                 (Linear)    (Quad)   (Total)
    R1        1.81653   0.00000   0.00000   0.00000   0.00000   1.81653
    R2        1.81653   0.00000   0.00000   0.00000   0.00000   1.81653
    R3        1.81653   0.00000   0.00000   0.00000   0.00000   1.81653
    A1        2.00256   0.00000   0.00000   0.00000   0.00000   2.00256
    A2        2.00256   0.00000   0.00000   0.00000   0.00000   2.00256
    A3        2.00256   0.00000   0.00000   0.00000   0.00000   2.00256
    D1       -2.37404   0.00000   0.00000   0.00000   0.00000  -2.37404
         Item               Value     Threshold  Converged?
 Maximum Force            0.000000     0.000002     YES
 RMS     Force            0.000000     0.000001     YES
 Maximum Displacement     0.000000     0.000006     YES
 RMS     Displacement     0.000000     0.000004     YES
 Predicted change in Energy=-1.532796D-15
 Optimization completed.
    -- Stationary point found.
                           ----------------------------
                           !   Optimized Parameters   !
                           ! (Angstroms and Degrees)  !
 --------------------------                            --------------------------
 ! Name  Definition              Value          Derivative Info.                !
 --------------------------------------------------------------------------------
 ! R1    R(1,2)                  0.9613         -DE/DX =    0.0                 !
 ! R2    R(1,3)                  0.9613         -DE/DX =    0.0                 !
 ! R3    R(1,4)                  0.9613         -DE/DX =    0.0                 !
 ! A1    A(2,1,3)              114.7383         -DE/DX =    0.0                 !
 ! A2    A(2,1,4)              114.7383         -DE/DX =    0.0                 !
 ! A3    A(3,1,4)              114.7383         -DE/DX =    0.0                 !
 ! D1    D(2,1,4,3)           -136.0226         -DE/DX =    0.0                 !
 --------------------------------------------------------------------------------
 GradGradGradGradGradGradGradGradGradGradGradGradGradGradGradGradGradGrad

 1\1\GINC-NISER-THINKCENTRE-M93P\Freq\RHF\6-31G(d,p)\H3O1(1+)\STUDENT\0
 1-Mar-2021\0\\#N Geom=AllCheck Guess=TCheck SCRF=Check GenChk RHF/6-31
 G(d,p) Freq\\xx\\1,1\O,0.0491712785,-0.0851671526,0.0347693445\H,-0.00
 0982477,0.0017017001,0.9907882873\H,0.9337966632,0.0017017001,-0.33118
 90507\H,-0.4683720471,-0.8078407822,-0.3311890507\\Version=EM64L-G09Re
 vC.01\State=1-A1\HF=-76.3103248\RMSD=2.766e-09\RMSF=4.817e-09\ZeroPoin
 t=0.036915\Thermal=0.0398345\Dipole=0.2524077,-0.4371829,0.1784792\Dip
 oleDeriv=-0.5641331,-0.0391971,0.0160021,-0.0391971,-0.5188722,-0.0277
 165,0.0160021,-0.0277165,-0.5754483,0.4207752,-0.0491063,-0.0242403,-0
 .0491063,0.4774782,0.0419854,-0.0193215,0.0334659,0.6545645,0.6148978,
 0.0151832,-0.0879542,0.0232154,0.4774782,-0.060293,-0.092873,-0.057453
 1,0.4604419,0.5284602,0.0731202,0.0961924,0.0650879,0.5639158,0.046024
 1,0.0961924,0.0517038,0.4604419\Polar=4.6397759,0.842056,3.6674534,-0.
 3437679,0.5954235,4.8828565\PolarDeriv=-2.3787267,0.6128552,0.5025244,
 1.0215611,0.4358525,-0.406333,1.0119837,0.7329613,2.237694,0.4358525,0
 .5182819,0.7037894,0.8586175,0.4358525,0.3553384,-0.175896,0.3046609,-
 2.8279521,0.0489009,0.0645466,-0.1127962,0.7848695,-0.0673111,0.004118
 ,-0.0092116,-0.1553806,0.1198816,-0.0673111,0.8625937,-0.0071326,0.462
 1807,0.1170192,0.3270585,-0.2778393,0.4812318,4.3909008,3.731048,0.450
 5552,0.270755,-1.1596277,-0.0194554,0.8621541,-0.0496713,0.7614676,0.1
 198816,-0.0530065,-0.4340254,0.033327,-0.7862328,-0.2037858,-0.2153648
 ,1.0724022,0.0952232,-0.7814743,-1.4012221,-1.127957,-0.6604832,-0.646
 8029,-0.349086,-0.4599391,-0.9531007,-1.3390484,-2.4774572,-0.3155349,
 -0.9468502,-0.7299838,-0.5345654,-0.349086,-0.4670322,-0.6186668,-0.88
 1116,-0.7814743\HyperPolar=6.3431491,-1.4003739,-3.109124,-4.2011218,-
 4.717203,-2.1812758,-2.1984827,-0.0819958,0.142021,9.1445069\PG=C03V [
 C3(O1),3SGV(H1)]\NImag=0\\0.74742859,0.30634453,0.39369239,-0.12506463
 ,0.21661830,0.83586264,-0.07687979,-0.03583013,0.01519905,0.05836019,-
 0.03583013,-0.03550673,-0.02632553,0.02341935,0.03131785,0.03429822,-0
 .05940626,-0.54660802,-0.03130348,0.05421922,0.55266860,-0.47886050,-0
 .06795213,0.17641986,0.01082906,0.00485742,-0.00058165,0.47806998,-0.0
 3676332,-0.03550673,-0.02500579,0.00574133,0.00052518,0.00312221,0.058
 92482,0.03131785,0.15732069,-0.01397888,-0.14462731,0.03978180,0.00437
 224,-0.00303029,-0.17969330,0.00400690,0.13295882,-0.19168829,-0.20256
 228,-0.06655428,0.00769055,0.00755335,-0.00241309,-0.01003853,-0.02790
 283,-0.01740920,0.19403628,-0.23375108,-0.32267894,-0.16528698,0.00666
 944,0.00366369,0.00206483,0.00416989,0.00366369,0.00559974,0.22291176,
 0.31535155,-0.06655428,-0.14323316,-0.14462731,-0.02367737,-0.03226593
 ,-0.00303029,0.00385509,0.01787668,0.01469878,0.08637657,0.15762241,0.
 13295882\\0.,0.,0.,0.,0.,0.,0.,0.,0.,0.,0.,0.\\\@


 We make a living by what we get,
 we make a life by what we give.
                   -- Sir Winston Churchill
 There are more things in heaven and earth, Horatio,
 than are dreamt of in your philosophy.
                   -- Hamlet, Act I, Scene 5
 The chemist is a guest at the physicist's table and
 frequently dines well.
                   -- Richard Bersohn
 Job cpu time:  0 days  0 hours  0 minutes  1.3 seconds.
 File lengths (MBytes):  RWF=      5 Int=      0 D2E=      0 Chk=      1 Scr=      1
 Normal termination of Gaussian 09 at Mon Mar  1 15:14:00 2021.
